# vtk DataFile Version 2.0
mesh vtk view
ASCII
DATASET UNSTRUCTURED_GRID
POINTS 3 double
0.0 0.0 0.0
1.0 0.0 0.0
0.4999999999986921 0.0 0.0

CELLS 2 6
2 0 2
2 2 1

CELL_TYPES 2
3
3

CELL_DATA 2
SCALARS NODISPL float 1
LOOKUP_TABLE default
1.0
1.0

