# vtk DataFile Version 2.0
mesh vtk view
ASCII
DATASET UNSTRUCTURED_GRID
POINTS 4 double
0.0 0.0 0.0
1.3333333333333333 0.0 0.0
-8.323897127127111e-13 0.0 0.0
0.6666666666657874 0.0 0.0

CELLS 3 9
2 0 2
2 2 3
2 3 1

CELL_TYPES 3
3
3
3

POINT_DATA 4
SCALARS MODE2_1.5915_Hz float 1
LOOKUP_TABLE default
0.0
0.1825741858350553
0.18257418583505539
0.0

