# vtk DataFile Version 2.0
mesh vtk view
ASCII
DATASET UNSTRUCTURED_GRID
POINTS 4 double
0.0 0.0 0.0
0.6666666666666665 0.0 0.0
0.1666666666658343 0.0 0.0
0.3779915320709745 0.0 0.0

CELLS 3 9
2 0 2
2 2 3
2 3 1

CELL_TYPES 3
3
3
3

POINT_DATA 4
SCALARS MODE1_0.5825_Hz float 1
LOOKUP_TABLE default
0.0
0.1825741858350554
0.09128709291752768
0.15811388300841897

