# vtk DataFile Version 2.0
mesh vtk view
ASCII
DATASET UNSTRUCTURED_GRID
POINTS 1025 double
0.0 0.0 0.0
794.7342035944476 -70.42171520400746 -0.0016690646806028404
805.2657964055636 9.578284795992502 0.0016690648382021696
0.0 80.0 0.0
0.0 0.0 80.0
794.7342035944365 -70.42171520401165 80.00166906483415
805.2657964055526 9.57828479598831 79.99833093532351
0.0 80.0 80.0
19.75779482305995 -0.09413103383962236 -0.13872097173220507
39.51588993030885 -0.25977474575386666 -0.16068788456458577
59.2747134880003 -0.5679846834032362 -0.16558150907925792
79.03477919361711 -1.001599045254501 -0.16215927331906269
98.79983014266642 -1.5557761125753373 -0.15752483704750203
118.57099169811964 -2.2261085718850433 -0.1528655539778777
138.3486938801387 -3.009230600293095 -0.14830703576547377
158.1330255955415 -3.9018221402112436 -0.14379633405703854
177.9239991196175 -4.900578265921828 -0.13930012440970868
197.72161164071292 -6.002185070301245 -0.13480676354446178
217.5258609138269 -7.2033259177986055 -0.13031352306942143
237.33674604995545 -8.500683149312001 -0.12582009165423827
257.1542668201182 -9.890938944541901 -0.12132655655857356
276.9784231891014 -11.370775475394 -0.11683298760565512
296.80921516002496 -12.936874927779845 -0.11233941121890194
316.64664273745956 -14.585919494437317 -0.10784583416901741
336.49070592336693 -16.31459137034696 -0.10335225744618239
356.3414047183013 -18.119572750959396 -0.09885868094059262
376.19873912236136 -19.997545831763517 -0.09436510451223679
396.06270913554715 -21.94519280822482 -0.08987152810244826
415.93331475784964 -23.959195875794236 -0.085377951694847
435.8105559892647 -26.036237229917617 -0.08088437528642342
455.69443282979023 -28.17299906603963 -0.07639079887692783
475.5849452794243 -30.36616357960459 -0.07189722246686739
495.4820933381609 -32.61241296605485 -0.06740364606137038
515.3858770060648 -34.90842942083404 -0.06291006968583887
535.2962962831367 -37.250895139356494 -0.05841649342402361
555.2133511694836 -39.63649231700614 -0.05392291745337733
575.1370416659619 -42.061903149256125 -0.049429341805702215
595.067367775326 -44.52380983235992 -0.044935764647465
615.0043295032325 -47.018894565610616 -0.04044217539372596
634.9479268487958 -49.54383955815251 -0.03594853642388618
654.8981597472109 -52.095327029739515 -0.03145475744361664
674.8550278329274 -54.67003918671567 -0.026960782634798553
694.8185299236688 -57.26465761776669 -0.022467314674355934
714.7886625195309 -59.875861047712 -0.017980284782866094
734.7654184726889 -62.50030676690111 -0.013524443945214425
754.7487531233897 -65.13461543226168 -0.009213540263898796
774.7384816212893 -67.77538413124239 -0.005050646580848409
797.3721705441156 -50.41927608047614 -3.132898916551917e-05
799.9999999999977 -30.417481606282237 7.882945944247768e-11
802.6278294558867 -10.41927608046943 3.132914679037113e-05
785.2615183787548 12.224615868724385 0.005050646732858068
765.2512468766874 14.865384567672024 0.009213540410262904
745.2345815274214 17.499693232999768 0.01352444408595424
725.2113374806125 20.124138952156414 0.01798028491796318
705.1814700765082 22.73534238206964 0.02246731480375954
685.1449721672832 25.329960813089265 0.026960782758587182
665.1018402530334 27.90467297003488 0.03145475756184118
645.0520731514825 30.456160441592104 0.035948536536467485
624.99567049708 32.98110543410534 0.04044217550078609
604.9326322250206 35.47619016732838 0.04493576474896681
584.8629583344191 37.93809685040583 0.04942934190170641
564.7866488309318 40.36350768263083 0.053922917543926495
544.7037037173134 42.749104860256935 0.05841649350916425
524.6141229944202 45.091570578757604 0.06291006976568707
504.5179066623583 47.387587033531766 0.06740364613601502
484.4150547211285 49.63383641999499 0.07189722253641365
464.3055671707961 51.82700093357336 0.07639079894150257
444.1894440113552 53.96376276970921 0.08088437534613581
424.0666852428035 56.040804123846804 0.085377951749813
403.93729086513946 58.054807191430754 0.08987152815279834
383.80126087835856 60.002454167907004 0.0943651045581243
363.65859528245204 61.88042724872642 0.09885868098217179
343.5092940774196 63.68540862935445 0.10335225748359528
323.3533572633602 65.41408050528003 0.10784583420244379
303.1907848408279 67.0631250719537 0.11233941124850691
283.0215768117084 68.62922452436179 0.116832987631626
262.8457331805814 70.10906105524049 0.12132655658112855
242.66325395067986 71.49931685049907 0.1258200916735932
222.47413908676836 72.79667408204108 0.1303135230858039
202.27838835984198 73.99781492956514 0.13480676355809426
182.0760008808969 75.09942173396917 0.1393001244208066
161.866974404932 76.09817785970218 0.1437963340658414
141.6513061202939 76.99076939964044 0.14830703577222998
121.42900830227191 77.7738914280662 0.1528655539828376
101.20016985768103 78.44422388739096 0.157524837050933
80.96522080665655 78.99840095472348 0.16215927332125432
60.72528651219657 79.43201531658401 0.16558150908057612
40.48411006981986 79.74022525424039 0.16068788456545563
20.242205177006944 79.90586896615883 0.13872097173310216
0.0 60.0 0.0
0.0 40.0 0.0
0.0 20.0 0.0
19.757794823059378 -0.09413103384005495 80.13872097173233
39.51588993030771 -0.25977474575447423 80.16068788456498
59.27471348799859 -0.5679846834039748 80.16558150908025
79.03477919361484 -1.001599045255349 80.16215927332098
98.7998301426636 -1.5557761125762923 80.1575248370506
118.57099169811627 -2.2261085718861042 80.15286555398245
138.34869388013482 -3.009230600294266 80.14830703577177
158.1330255955371 -3.9018221402125266 80.14379633406531
177.92399911961263 -4.900578265923215 80.13930012442022
197.7216116407076 -6.0021850703027315 80.13480676355744
217.5258609138211 -7.203325917800205 80.13031352308509
237.33674604994923 -8.500683149313696 80.12582009167282
257.15426682011156 -9.8909389445437 80.12132655658029
276.9784231890944 -11.370775475395895 80.1168329876307
296.8092151600176 -12.936874927781854 80.11233941124746
316.64664273745177 -14.585919494439427 80.10784583420129
336.4907059233588 -16.31459137034922 80.10335225748231
356.34140471829284 -18.119572750961744 80.09885868098078
376.1987391223526 -19.99754583176598 80.09436510455663
396.0627091355381 -21.945192808227397 80.08987152815119
415.9333147578404 -23.959195875796873 80.08537795174811
435.8105559892551 -26.03623722992036 80.08088437534433
455.69443282978045 -28.172999066042472 80.07639079893961
475.5849452794143 -30.366163579607548 80.07189722253442
495.4820933381507 -32.61241296605791 80.06740364613387
515.3858770060544 -34.90842942083721 80.06291006976339
535.2962962831261 -37.2508951393598 80.05841649350668
555.213351169473 -39.63649231700955 80.05392291754126
575.1370416659511 -42.061903149259564 80.04942934189889
595.0673677753151 -44.52380983236351 80.04493576474597
615.0043295032215 -47.0188945656143 80.04044217549763
634.9479268487847 -49.543839558156286 80.0359485365332
654.8981597471999 -52.09532702974333 80.03145475755844
674.8550278329163 -54.67003918671956 80.02696078275505
694.8185299236577 -57.26465761777055 80.02246731480017
714.7886625195198 -59.87586104771582 80.01798028491424
734.7654184726778 -62.500306766905105 80.0135244440821
754.7487531233785 -65.13461543226573 80.00921354040624
774.7384816212781 -67.77538413124653 80.0050506467288
797.3721705441045 -50.419276080480316 80.00003132914475
799.9999999999865 -30.417481606286444 80.00000000007881
802.6278294558756 -10.419276080473622 79.99996867101287
785.2615183787436 12.224615868720193 79.99494935342332
765.2512468766763 14.865384567667888 79.99078645974032
745.2345815274102 17.49969323299569 79.98647555605899
725.2113374806014 20.124138952152478 79.98201971522127
705.181470076497 22.73534238206578 79.9775326853298
685.144972167272 25.32996081308542 79.97303921736939
665.1018402530224 27.904672970031086 79.96854524256052
645.0520731514715 30.456160441588494 79.96405146358023
624.995670497069 32.98110543410176 79.95955782461037
604.9326322250097 35.476190167324894 79.9550642353566
584.8629583344083 37.938096850402474 79.95057065819833
564.7866488309211 40.363507682627564 79.94607708255062
544.7037037173028 42.74910486025385 79.94158350657989
524.6141229944097 45.09157057875465 79.937089930318
504.51790666234814 47.387587033528966 79.93259635394237
484.4150547211185 49.63383641999232 79.92810277753676
464.3055671707863 51.82700093357083 79.92360920112657
444.18944401134564 53.963762769706776 79.91911562471694
424.06668524279416 56.04080412384448 79.91462204830842
403.9372908651304 58.05480719142858 79.91012847190068
383.8012608783498 60.00245416790494 79.90563489549076
363.6585952824436 61.8804272487245 79.90114131906228
343.50929407741154 63.68540862935268 79.89664774255657
323.35335726335245 65.41408050527839 79.89215416583359
303.1907848408205 67.0631250719522 79.88766058878358
283.0215768117014 68.62922452436042 79.88316701239668
262.84573318057477 70.10906105523925 79.87867344344363
242.66325395067364 71.49931685049795 79.87417990834781
222.4741390867626 72.79667408204008 79.86968647693244
202.27838835983667 73.99781492956426 79.86519323645724
182.07600088089202 75.09942173396843 79.86069987559182
161.8669744049276 76.09817785970155 79.85620366594432
141.65130612029 76.99076939963996 79.85169296423572
121.42900830226854 77.77389142806584 79.84713444602315
101.2001698576782 78.44422388739073 79.84247516295335
80.96522080665426 78.9984009547234 79.83784072668159
60.72528651219485 79.43201531658406 79.83441849092112
40.48411006981871 79.74022525424054 79.83931211543539
20.24220517700637 79.90586896615906 79.86127902826723
0.0 60.0 80.0
0.0 40.0 80.0
0.0 20.0 80.0
0.0 0.0 20.0
0.0 0.0 40.0
0.0 0.0 60.0
794.7322152112803 -70.42334041348282 19.998927863475252
794.7317724242776 -70.42399991443307 40.000000000076746
794.7322152112746 -70.42334041348498 60.00107213667828
805.2677847887255 9.576659586517124 20.001072136682378
805.2682275757226 9.576000085566946 40.00000000008088
805.26778478872 9.576659586515007 59.99892786347936
0.0 80.0 20.0
0.0 80.0 40.0
0.0 80.0 60.0
[...]
POINT_DATA 1025
SCALARS CellEntityIds float 1
LOOKUP_TABLE default
0.0
0.24074425986738604
0.24074425986738907
0.0
0.0
0.24074425986740317
0.24074425986740053
0.0
0.001004192891813903
0.0019514360400759035
0.0031908514725120895
0.004774124164724091
0.006720027353169445
0.009033120859295677
0.011712733297831525
0.014754113334865699
0.018149960145209282
0.021891421461382028
0.02596873743662169
0.030371607228835657
0.03508939873915365
0.04011127023476055
0.04542624329606068
0.051023247976365156
0.056891151593606346
0.06301877756074192
0.06939491798467823
0.07600834227096114
0.08284780311215043
0.08990204072813242
0.0971597859169771
0.10460976228269571
0.11224068788449405
0.12004127647358906
0.1280002384319222
0.13610628149301462
0.14434811130194042
0.152714431856604
0.16119394586368405
0.16977535504461094
0.1784473603832527
0.1871986623018334
0.19601795890464727
0.20489393887711976
0.2138152187538368
0.22277030038753623
0.2317476403859368
0.2402328076846061
0.24005959638484575
0.2402328076846063
0.23174764038605278
0.22277030038776477
0.21381521875417708
0.2048939388775705
0.1960179589052072
0.1871986623025002
0.17844736038402348
0.16977535504548305
0.1611939458646537
0.1527144318576677
0.1443481113030938
0.136106281494253
0.12800023843324063
0.12004127647498156
0.11224068788590369
0.1046097622840614
0.09715978591829728
0.08990204072940562
0.08284780311337543
0.0760083422721368
0.06939491798580319
0.06301877756181495
0.05689115159462647
0.051023247977331224
0.04542624329697172
0.04011127023559618
0.03508939873989906
0.030371607229483844
0.02596873743717294
0.021891421461842926
0.018149960145586903
0.014754113335167525
0.011712733298065398
0.009033120859469897
0.0067200273532929235
0.004774124164808187
0.0031908514725647024
0.0019514360401042515
0.0010041928918256926
0.0
0.0
0.0
0.001004192891816179
0.0019514360400805235
0.0031908514725187513
0.0047741241647322715
0.006720027353178736
0.009033120859305802
0.011712733297842311
0.01475411333487703
0.01814996014522104
0.02189142146139414
0.02596873743663416
0.03037160722884839
0.03508939873916666
0.040111270234773795
0.0454262432960742
0.051023247976378895
0.056891151593620445
0.06301877756075619
0.06939491798469274
0.07600834227097587
0.08284780311216525
0.08990204072814742
0.0971597859169923
0.10460976228271114
0.11224068788450964
0.12004127647360487
0.1280002384319383
0.13610628149303095
0.14434811130195666
0.15271443185662056
0.1611939458637008
0.16977535504462785
0.17844736038326955
0.18719866230185037
0.19601795890466397
0.20489393887713617
0.21381521875385368
0.22277030038755313
0.2317476403859538
0.2402328076846217
0.24005959638486007
0.24023280768461922
0.23174764038606402
0.2227703003877757
0.21381521875418769
0.20489393887758045
0.19601795890521673
0.18719866230250948
0.17844736038403244
0.16977535504549118
0.16119394586466157
0.15271443185767508
0.14434811130310052
0.13610628149425927
0.1280002384332461
0.12004127647498643
0.11224068788590782
0.10460976228406492
0.09715978591830016
0.08990204072940798
0.08284780311337722
0.07600834227213793
0.06939491798580372
0.06301877756181487
0.056891151594625704
0.05102324797732984
0.045426243296969745
0.040111270235593556
0.03508939873989591
0.030371607229480138
0.025968737437168685
0.02189142146183818
0.018149960145581633
0.014754113335161814
0.011712733298059313
0.009033120859463539
0.006720027353286474
0.004774124164801921
0.00319085147255906
0.0019514360400998993
0.0010041928918233093
0.0
0.0
0.0
0.0
0.0
0.0
0.24075029043204435
0.24075264504170085
0.2407502904320531
0.240750290432046
0.24075264504170088
0.2407502904320518
0.0
0.0
0.0
0.0004661657966493285
6.808433831272397e-06
0.00046616579665365965
0.0011017529047283568
0.0006105713702751013
0.0011017529047410936
0.0021424489746915227
0.0016692950741433352
0.002142448974716591
0.0036179754543687226
0.0031523231060390992
0.0036179754544098048
0.0055063299306217705
0.00504725525407859
0.0055063299306828285
0.0077917928842678895
0.007339360313829196
0.007791792884354567
0.010461600765407666
0.010016356182338289
0.010461600765524406
0.013504293357733496
0.013066628011189862
0.01350429335788442
0.016908626609062866
0.016478830573736794
0.01690862660925187
0.020663372520631766
0.02024165641076346
0.020663372520862613
0.02475727925116046
0.02434380036365136
0.02475727925143664
0.029179076988252842
0.028773953872471725
0.029179076988577697
0.033917484377085826
0.03352080683565313
0.03391748437745941
0.03896121268092137
0.03857304864949431
0.03896121268134015
0.044298968115086754
0.04391936861177873
0.04429896811554329
0.0499194532811404
0.04954845601423955
0.049919453281624476
0.05581136811943776
0.0554490001547051
0.05581136811994883
0.061963410577864426
0.06160969033441279
0.06196341057840205
0.06836427709403675
0.06801921585575012
0.06836427709460025
0.0750026629486703
0.07466626602136356
0.07500266294925924
0.08186726252791161
0.08153953013392516
0.08186726252852518
0.08894676952054495
0.0886276974960974
0.08894676952118268
0.09622987706810258
0.09591945741053418
0.09622987706876376
0.10370527788053452
0.10340349917988298
0.10370527788121853
0.11136166432640544
0.11106851210678119
0.11136166432711139
0.11918772850407025
0.11890318549385703
0.11918772850476748
0.1271721622984645
0.12689620864379403
0.12717216229912448
0.1353036574271692
0.13503627085969797
0.13530365742778902
0.14357090547878382
0.14331206144634237
0.14357090547936102
0.15196259794624467
0.15171226971311944
0.1519625979467767
0.16046742625638558
0.16022558497487946
0.1604674262568704
0.16907408177883607
0.16884069652592332
0.16907408177927213
0.17777125574763175
0.1775462934406367
0.17777125574801705
0.18654763869893118
0.18633106381752612
0.18654763869926438
0.1953919187337899
0.19518369203557243
0.19539191873406925
0.20429277369387047
0.20409285640895727
0.20429277369409538
0.21323886175827303
0.2130472418706493
0.21323886175844223
0.22221877056423409
0.22203568128642856
0.22221877056434752
0.23122117239270437
0.23104689908634124
0.2312211723927616
0.000907138540388485
0.0009223120334594775
0.0009071385403896857
0.001971419598647954
0.001979255009986332
0.001971419598650335
0.003282657875249633
0.0033126709005096167
0.0032826578752529673
0.0049045940231650575
0.004946432813073096
0.00490459402316912
0.006869139591558921
0.00691745923199804
0.006869139591563539
0.009191529245536666
0.009242950258076761
0.00919152924554171
0.011875405149370681
0.011928228091400803
0.011875405149376054
0.014918012099910795
0.014971241935413748
0.014918012099916436
0.01831309997798863
0.018366101176146815
0.018313099977994497
0.02205245624875414
0.022104795537025677
0.02205245624876021
0.026126732667677028
0.026178106041739636
0.02612673266768322
0.030525900995849398
0.030576090692847013
0.03052590099585578
0.03523951302167955
0.03528836029879559
0.03523951302168607
0.04025685343165838
0.040304240594831786
0.04025685343166502
0.045567032396304996
0.045612870784692096
0.04556703239631174
0.05115904321527464
0.05120326504910002
0.05115904321528151
0.05702179914654387
0.05706435190989594
0.05702179914655089
0.06314415750373722
0.06318500000884314
0.06314415750374436
0.06951493577224933
0.06955403535667956
0.06951493577225652
0.07612292260658989
0.0761602531064765
0.07612292260659723
0.08295688547471365
0.08299242573822302
0.082956885474721
0.09000557606276949
0.09003930884547624
0.09000557606277697
0.09725773415683822
0.09728964529091268
0.09725773415684587
0.10470209047163637
0.10473216823394695
0.10470209047164408
0.11232736873990234
0.11235560336639998
0.11232736873991021
0.12012228727535451
0.1201486705842672
0.12012228727536242
0.12807556015574686
0.12810008525257735
0.12807556015575497
0.13617589812868022
0.1361985591732903
0.13617589812868836
0.14441200931279383
0.1444328013338093
0.144412009312802
0.15277259974648033
0.1527915184915005
0.15277259974648866
0.16124637382163068
0.16126341563234187
0.16124637382163903
0.16982203462951231
0.16983719633764552
0.16982203462952056
0.17848828421920723
0.17850156306799617
0.17848828421921573
0.18723382380441692
0.1872452176296525
0.18723382380442516
0.19604735334682863
0.19605686161932012
0.19604735334683687
0.204917570858196
0.20492520016172625
0.20491757085820436
0.21383315239223666
0.2138389276891899
0.21383315239224512
0.22278278890601255
0.22278678990819856
0.22278278890602102
0.2317554065218708
0.23175810263210778
0.23175540652187937
0.2402384126962702
0.2402413339426246
0.24023841269627833
0.24006470886177983
0.24006804123148362
0.24006470886178718
0.24023841269626983
0.24024133394262356
0.24023841269627655
0.23175540652198534
0.23175810263222069
0.23175540652199092
0.22278278890623932
0.22278678990842396
0.22278278890624492
0.21383315239257528
0.2138389276895268
0.21383315239258047
0.20491757085864507
0.20492520016217375
0.20491757085864998
0.1960473533473863
0.19605686161987596
0.19604735334739115
0.1872338238050813
0.18724521763031501
0.18723382380508585
0.17848828421997578
0.17850156306876264
0.17848828421998025
0.16982203463038156
0.16983719633851274
0.16982203463038595
0.16124637382259752
0.16126341563330637
0.16124637382260157
0.15277259974754098
0.15279151849255865
0.1527725997475447
0.14441200931394393
0.14443280133495684
0.14441200931394724
0.1361758981299153
0.13619855917452242
0.13617589812991832
0.12807556015706165
0.12810008525388916
0.12807556015706442
0.12012228727674343
0.12014867058565296
0.12012228727674577
0.11232736874130811
0.11235560336780258
0.11232736874131019
0.1047020904729981
0.10473216823530529
0.10470209047299983
0.09725773415815436
0.09728964529222539
0.09725773415815586
0.09000557606403857
0.09003930884674191
0.09000557606403978
0.08295688547593441
0.0829924257394403
0.08295688547593533
0.07612292260776114
0.07616025310764421
0.0761229226077617
0.06951493577336983
0.06955403535779632
0.06951493577337017
0.0631441575048058
0.06318500000990786
0.06314415750480581
0.05702179914755945
0.057064351910907564
0.057021799147559116
0.05115904321623609
0.05120326505005743
0.051159043216235434
0.04556703239721138
0.04561287078559441
0.04556703239721043
0.04025685343248933
0.04030424059565853
0.04025685343248808
0.035239513022420246
0.03528836029953202
0.03523951302241871
0.03052590099649293
0.030576090693486255
0.030525900996491145
0.026126732668223653
0.026178106042282014
0.026126732668221624
0.0220524562492105
0.022104795537477774
0.022052456249208218
0.018313099978361804
0.018366101176515742
0.018313099978359296
0.014918012100208315
0.014971241935707088
0.014918012100205585
0.011875405149600476
0.011928228091626532
0.011875405149597581
0.00919152924570712
0.009242950258243331
0.009191529245704112
0.006869139591679083
0.0069174592321146295
0.006869139591676059
0.00490459402324659
0.0049464328131515346
0.004904594023243685
0.003282657875300819
0.0033126709005583733
0.0032826578752982428
0.0019714195986760305
0.001979255010012592
0.0019714195986740646
0.0009071385403997302
0.0009223120334696138
0.0009071385403987248
0.0
0.0
0.0
0.0
0.0
0.0
0.0
0.0
0.0
0.0004661657966513645
6.8084338316744435e-06
0.000466165796651392
0.0011017529047325496
0.0006105713702758861
0.0011017529047374986
0.002142448974696875
0.001669295074144522
0.002142448974712871
0.0036179754543747534
0.003152323106040694
0.0036179754544063795
0.005506329930628304
0.005047255254080587
0.005506329930679825
0.007791792884274847
0.007339360313831605
0.00779179288435203
0.01046160076541501
0.010016356182341115
0.010461600765522362
0.013504293357741223
0.0130666280111931
0.01350429335788288
0.016908626609070908
0.016478830573740423
0.016908626609250826
0.020663372520640128
0.020241656410767497
0.020663372520862085
0.024757279251169134
0.0243438003636558
0.0247572792514366
0.029179076988261835
0.02877395387247654
0.02917907698857815
0.03391748437709509
0.03352080683565833
0.03391748437746034
0.03896121268093091
0.03857304864949987
0.03896121268134157
0.04429896811509658
0.04391936861178471
0.04429896811554523
0.04991945328115062
0.049548456014245935
0.04991945328162697
0.05581136811944832
0.05544900015471195
0.05581136811995186
0.06196341057787527
0.06160969033442004
0.06196341057840561
0.06836427709404794
0.06801921585575785
0.06836427709460435
0.07500266294868176
0.0746662660213716
0.07500266294926382
0.08186726252792333
0.08153953013393361
0.08186726252853024
0.08894676952055688
0.0886276974961063
0.08894676952118823
0.0962298770681148
0.09591945741054325
0.09622987706876973
0.10370527788054712
0.10340349917989257
0.10370527788122501
0.11136166432641831
0.11106851210679118
0.11136166432711844
0.11918772850408332
0.11890318549386755
0.11918772850477515
0.127172162298478
0.12689620864380488
0.12717216229913267
0.13530365742718303
0.13503627085970926
0.13530365742779785
0.1435709054787978
0.14331206144635397
0.14357090547937018
0.15196259794625902
0.1517122697131316
0.1519625979467865
0.16046742625640015
0.16022558497489198
0.16046742625688062
0.16907408177885094
0.1688406965259361
0.16907408177928257
0.17777125574764674
0.1775462934406497
0.1777712557480281
0.1865476386989462
0.18633106381753933
0.18654763869927554
0.1953919187338047
0.1951836920355855
0.19539191873408057
0.20429277369388532
0.20409285640897062
0.20429277369410703
0.2132388617582881
0.21304724187066296
0.21323886175845447
0.2222187705642494
0.22203568128644247
0.22221877056436
0.23122117239272005
0.23104689908635528
0.23122117239277418
0.0004119303796504577
0.00041613204741697816
0.00041193037965140593
0.00014730046659775694
0.0001770063136602723
0.00014730046659795022
0.0004119303796543377
0.0004161320474201424
0.0004119303796534981
0.0011879594769108716
0.0012172641248098669
0.0011879594769128464
0.0007955393679379458
0.0008525021826885743
0.000795539367938338
0.0011879594769225654
0.0012172641248201542
0.0011879594769210768
0.0022971854266697943
0.002346639789314114
0.0022971854266723574
0.001871620584534372
0.0019368373910173238
0.001871620584534967
0.0022971854266931025
0.0023466397893355372
0.0022971854266914706
0.0037957806216112103
0.0038542098130837656
0.0037957806216141416
0.003355752004613654
0.0034233827518668535
0.0033557520046144525
0.003795780621650099
0.003854209813120525
0.003795780621648546
0.0056903678557620185
0.005751277369487504
0.005690367855765223
0.0052464881348395775
0.005313458367348703
0.00524648813484058
0.0056903678558206895
0.0057512773695439145
0.005690367855819299
0.007975867791849183
0.008036926415574287
0.007975867791852626
0.007533081126596553
0.007598381029953459
0.00753308112659776
0.007975867791933395
0.008036926415656183
0.007975867791932208
0.01064326674242737
0.010703530387881207
0.010643266742431013
0.010204337874092128
0.010267744903934495
0.010204337874093534
0.010643266742541605
0.01070353038799311
0.010643266742540652
0.013682354640399703
0.013741413869740206
0.013682354640403524
0.013248880766919864
0.013310357176761612
0.013248880766921475
0.013682354640548088
0.013741413869886266
0.013682354640547366
0.017082399902198505
0.017140031769855395
0.017082399902202516
0.016655375457550567
0.016714924616938374
0.01665537545755239
0.017082399902384988
0.017140031770039546
0.017082399902384516
0.02083242776184676
0.020888494310679795
0.020832427761850937
0.020412503221176593
0.020470129174019278
0.020412503221178605
0.02083242776207508
0.020888494310905854
0.020832427762074848
0.02492133313549299
0.024975742443935595
0.02492133313549731
0.024508951854309832
0.02456465640487381
0.024508951854312046
0.02492133313576667
0.02497574244420701
0.024921333135766673
0.029337937076977978
0.02939062590270201
0.029337937076982443
0.028933410551167327
0.02898719418673189
0.02893341055116974
0.0293379370773003
0.029390625903022077
0.029337937077300553
0.03407101655720784
0.034121940354025396
0.034071016557212494
0.033674568701918296
0.0337264315082023
0.03367456870192088
0.03407101655757892
0.03412194035439428
0.0340710165575794
0.03910932122857285
0.039158447959356635
0.03910932122857764
0.038721115659774444
0.03877105763436848
0.03872111565977719
0.0391093212289892
0.03915844795977076
0.039109321228989906
0.044441583210902434
0.04448888937118752
0.04444158321090737
0.044061740744603305
0.04410976187909883
0.044061740744606274
0.044441583211356515
0.044488889371639535
0.04444158321135749
0.05005652301323859
0.05010199104068764
0.05005652301324368
0.049685133263001426
0.04973123355344756
0.049685133263004645
0.0500565230137203
0.05010199104116724
0.05005652301372153
0.055942853236651734
0.05598646979251275
0.055942853236656986
0.05557998251805074
0.0556241619632688
0.05557998251805418
0.05594285323716045
0.05598646979301948
0.05594285323716197
0.062089280962066506
0.06213103576782883
0.06208928096207194
0.061734977812262344
0.06177723641202077
0.061734977812265994
0.06208928096260185
0.062131035768362194
0.06208928096260366
0.0684845093335613
0.06852439436673209
0.06848450933356687
0.06813880844818265
0.06817914620247222
0.06813880844818646
0.06848450933412253
0.06852439436729141
0.06848450933412462
0.07511723863456968
0.07515524756167416
0.07511723863457542
0.07478016372842436
0.07481858063726071
0.07478016372842844
0.07511723863515635
0.07515524756225894
0.07511723863515866
0.08197616703574609
0.08201229480540054
0.08197616703575189
0.08164773295562965
0.0816842290190211
0.0816477329556339
0.08197616703635743
0.08201229480601017
0.08197616703636003
0.08904999112507545
0.0890842336712505
0.08904999112508136
0.08873020543244882
0.08876478065039826
0.08873020543245318
0.089049991125711
0.08908423367188437
0.0890499911257138
0.09632740629044884
0.09635976031295773
0.09632740629045494
0.09601627046153353
0.09604892483404265
0.09601627046153809
0.09632740629110795
0.09635976031361515
0.09632740629111096
0.10379710700034875
0.1038275698003388
0.10379710700035509
0.1034946173455359
0.10352535087260889
0.10349461734554068
0.10379710700103076
0.10382756980101898
0.10379710700103399
0.11144778701294072
0.11147635636813634
0.11144778701294718
0.11115393538711041
0.11118274806875866
0.11115393538711549
0.11144778701364459
0.11147635636883872
0.11144778701364814
0.11926813953408355
0.11929481360313979
0.11926813953409009
0.11898291388892451
0.11900980572516605
0.11898291388892972
0.11926813953477884
0.11929481360383355
0.11926813953478266
0.12724685733830984
0.12727163458671584
0.12724685733831664
0.12697024215368669
0.12699521314448706
0.12697024215369218
0.127246857338968
0.1272716345873726
0.1272468573389721
0.13537263286271706
0.13539551200471336
0.13537263286272389
0.135104609484188
0.13512765962916173
0.13510460948419353
0.13537263286333523
0.13539551200532993
0.13537263286333948
0.14363415828066467
0.14365513823289805
0.14363415828067175
0.14337470518320056
0.14339583448056945
0.14337470518320639
0.1436341582812403
0.14365513823347237
0.14363415828124484
0.15202012555974453
0.15203920540310048
0.1520201255597517
0.15176921855251074
0.1517884269970109
0.1517692185525168
0.15202012556027508
0.15203920540362972
0.15202012556027994
0.16051922650634137
0.16053640545567507
0.16051922650634873
0.16027683888836786
0.16029412647050953
0.16027683888837407
0.16051922650682485
0.16053640545615727
0.16051922650682998
0.16912015279503045
0.16913543018728588
0.1691201527950378
0.16888625546827926
0.1689016222018178
0.16888625546828565
0.16912015279546497
0.16913543018771962
0.16912015279547046
0.17781159599134758
0.17782497137657396
0.17781159599135504
0.17758615751298287
0.1775996035754463
0.1775861575129893
0.1778115959917318
0.17782497137695713
0.1778115959917372
0.18658224756726235
0.1865937211098319
0.1865822475672698
0.18636523416401818
0.18637676056780106
0.18636523416402487
0.18658224756759442
0.186593721110163
0.1865822475676
0.19542079933775405
0.1954303736473676
0.1954207993377613
0.19521217449838152
0.19522178478756555
0.19521217449838807
0.19542079933803244
0.19543037364764498
0.1954207993380382
0.2043159439528371
0.2043236278699697
0.20431594395284447
0.2041156719837463
0.20412337874707315
0.2041156719837528
0.204315943953061
0.20432362787019287
0.20431594395306668
0.21325638670198072
0.2132622103486987
0.21325638670198838
0.21306444698903867
0.2130702847687501
0.21306444698904545
0.2132563867021493