# vtk DataFile Version 2.0
mesh vtk view
ASCII
DATASET UNSTRUCTURED_GRID
POINTS 1025 double
0.0 0.0 0.0
794.6145264034124 -72.02220873137126 -0.0017069979687983597
805.3854735965991 7.9777912686286925 0.001706998129979492
0.0 80.0 0.0
0.0 0.0 80.0
794.614526403401 -72.02220873137556 80.00170699812583
805.3854735965879 7.977791268624401 79.9982930020354
0.0 80.0 80.0
19.752290159949457 -0.0962703755177956 -0.14187372108975518
39.504887428728644 -0.26567871724827274 -0.16433988194105364
59.25822970364211 -0.5808934262078552 -0.1693447251946956
79.01284235711539 -1.024362659919376 -0.16584471134904138
98.77255355500834 -1.5911346605884131 -0.16110494698039982
118.53851423672417 -2.2767019485187947 -0.15633977111373856
138.31116419560965 -3.077622204845211 -0.1516776502146891
158.09059435909217 -3.9904999161251355 -0.1470644325583349
177.87681728144494 -5.011955044692779 -0.14246603632811117
197.6698300871131 -6.138598367353546 -0.13787055362501774
217.4696304800729 -7.367037870475847 -0.13327519404827193
237.27621755111585 -8.693880493614547 -0.1286796391918346
257.0895910660568 -10.115733011463309 -0.12408397829854116
276.90975098888134 -11.629202190743863 -0.11948828277851094
296.73669732278114 -13.230894812502116 -0.11489257965569516
316.5704300724309 -14.917417664765438 -0.1102968758546769
336.4109492398369 -16.685377537854848 -0.10570117238814108
356.258254825566 -18.531381222572108 -0.10110546914378792
376.11234682971906 -20.452035509758144 -0.09650976597842399
395.9732252522962 -22.443947190229935 -0.09191406283204936
415.8408900932881 -24.50372305478956 -0.08731835968791171
435.7153413526906 -26.62796989423393 -0.08272265654293304
455.5965790305016 -28.813294499358715 -0.07812695339685802
475.484603126719 -31.05630366095924 -0.07353125025020528
495.37941364133667 -33.35360416982883 -0.06893554710821971
515.2810105744193 -35.70180281676209 -0.06433984399688067
535.1893939259676 -38.097506392523684 -0.05974414100184233
555.1045636960926 -40.53732168784719 -0.05514843830459046
575.0265198856702 -43.0178554935574 -0.050552735937649994
594.9552624975174 -45.5357146012772 -0.04595703202581648
614.8907915374192 -48.08750580573813 -0.04136131574358337
634.8331070044701 -50.66983591174689 -0.036765548615338144
654.7822088323923 -53.27931173496087 -0.032169638294607936
674.738096647327 -55.912540077322845 -0.02757352769468034
694.7007692401282 -58.566127109079574 -0.02297793546240948
714.6702230313484 -61.23667607152364 -0.018388927618840326
734.6464507107121 -63.920768284330684 -0.013831817671242025
754.6294066034717 -66.61494760117672 -0.009422938906260132
774.6189016581393 -69.3157337705888 -0.0051654340031404185
797.312447147391 -52.0197141732134 -3.2041011646553697e-05
799.9999999999976 -32.017878915514544 8.062103806617036e-11
802.6875528526115 -12.019714173206694 3.2041172853788656e-05
785.381098341905 10.6842662293772 0.005165434158604843
765.3705933966057 13.385052398755477 0.009422939055950699
745.3535492893985 16.079231715567936 0.013831817815180473
725.3297769687953 18.763323928341784 0.0183889277570078
705.299230760049 21.433872890753037 0.022977935594754077
685.2619033528839 24.087459922477656 0.027573527821282345
665.2177911678524 26.720688264808395 0.03216963841551939
645.1668929958086 29.330164087991918 0.03676554873047811
625.1092084628937 31.91249419397137 0.04136131585307669
605.0447375028297 34.46428539840402 0.045957032129625146
584.9734801147113 36.982144506096866 0.05055273603583611
564.8954363043233 39.46267831178153 0.055148438397197554
544.8106060744831 41.902493607080956 0.05974414108891799
524.7189894260663 44.298197182820275 0.06433984407854361
504.62058635918316 46.64639582974839 0.06893554718456082
484.51539687383445 48.94369633863124 0.07353125032133215
464.40342097008545 51.18670550024548 0.07812695346290036
444.28465864793 53.372030105384425 0.08272265660400253
424.1591099073657 55.496276944843316 0.08731835974412694
404.0267747483912 57.55605280941781 0.09191406288354376
383.8876531710016 59.547964489904885 0.09650976602535441
363.7417451751881 61.46861877710656 0.10110546918631207
343.58905076095044 63.314622461839775 0.10570117242640427
323.42956992838964 65.08258233494547 0.11029687588886297
303.26330267807253 66.76910518722539 0.11489257968597298
283.0902490119293 68.37079780900638 0.11948828280507205
262.91040893464356 69.88426698831414 0.12408397832160875
242.72378244952017 71.30611950619223 0.12867963921162942
222.530369520523 72.63296212936021 0.13327519406502675
202.33016991344246 73.8614016325098 0.13787055363896006
182.12318271907003 74.98804495519573 0.1424660363394613
161.90940564138188 76.0095000837863 0.1470644325673378
141.6888358048234 76.92237779508682 0.15167765022159885
121.4614857636678 77.72329805143133 0.1563397711188112
101.22744644533945 78.40886533937712 0.16110494698390876
80.98715764315855 78.9756373400581 0.16584471135128284
60.74177029655498 79.4191065737791 0.1693447251960438
40.49511257140021 79.73432128274585 0.16433988194194327
20.24770984011751 79.90372962448063 0.1418737210906727
0.0 60.0 0.0
0.0 40.0 0.0
0.0 20.0 0.0
19.75229015994887 -0.09627037551823801 80.14187372108988
39.50488742872747 -0.2656787172488941 80.16433988194146
59.25822970364035 -0.5808934262086105 80.16934472519573
79.01284235711306 -1.0243626599202433 80.165844711351
98.77255355500544 -1.59113466058939 80.16110494698357
118.53851423672072 -2.276701948519879 80.15633977111841
138.3111641956057 -3.0776222048464086 80.15167765022113
158.09059435908767 -3.9904999161264483 80.1470644325668
177.87681728143997 -5.011955044694197 80.14246603633886
197.66983008710764 -6.138598367355066 80.13787055363828
217.469630480067 -7.367037870477484 80.1332751940643
237.2762175511095 -8.69388049361628 80.12867963921083
257.08959106605005 -10.11573301146515 80.12408397832074
276.9097509888742 -11.629202190745804 80.11948828280413
296.7366973227736 -13.23089481250417 80.1148925796849
316.57043007242294 -14.917417664767596 80.11029687588768
336.41094923982865 -16.685377537857157 80.1057011724251
356.25825482555734 -18.531381222574513 80.10110546918489
376.11234682971013 -20.452035509760663 80.09650976602383
395.97322525228697 -22.443947190232564 80.0919140628819
415.84089009327863 -24.50372305479226 80.08731835974238
435.7153413526808 -26.62796989423673 80.08272265660216
455.59657903049157 -28.81329449936162 80.07812695346097
475.48460312670875 -31.056303660962268 80.07353125031928
495.37941364132627 -33.353604169831954 80.06893554718236
515.2810105744086 -35.70180281676533 80.0643398440762
535.1893939259568 -38.097506392527066 80.05974414108638
555.1045636960816 -40.53732168785068 80.05514843839447
575.0265198856591 -43.01785549356092 80.05055273603296
594.9552624975063 -45.535714601280866 80.04595703212657
614.890791537408 -48.087505805741905 80.04136131584984
634.8331070044588 -50.66983591175075 80.03676554872715
654.7822088323809 -53.27931173496477 80.03216963841203
674.7380966473156 -55.91254007732683 80.02757352781767
694.7007692401169 -58.566127109083524 80.02297793559107
714.6702230313371 -61.236676071527555 80.0183889277532
734.6464507107006 -63.92076828433477 80.01383181781122
754.6294066034602 -66.61494760118086 80.00942293905183
774.6189016581278 -69.31573377059304 80.00516543415446
797.3124471473795 -52.019714173217665 80.00003204117077
799.9999999999862 -32.01787891551885 80.0000000000806
802.6875528526001 -12.019714173210971 79.99996795899042
785.3810983418937 10.684266229372923 79.99483456600112
765.3705933965944 13.385052398751242 79.99057706109805
745.3535492893872 16.079231715563765 79.98616818233306
725.3297769687839 18.763323928337755 79.98161107238539
705.2992307600376 21.433872890749093 79.97702206454186
685.2619033528725 24.087459922473727 79.9724264723096
665.2177911678411 26.720688264804515 79.96783036170963
645.1668929957973 29.33016408798823 79.96323445138887
625.1092084628824 31.912494193967703 79.9586386842606
605.0447375028185 34.464285398400456 79.95404296797835
584.9734801147002 36.98214450609344 79.94944726406648
564.8954363043124 39.462678311778184 79.9448515616995
544.8106060744723 41.9024936070778 79.94025585900216
524.7189894260557 44.29819718281725 79.93566015600705
504.62058635917276 46.646395829745536 79.93106445289561
484.5153968738243 48.943696338628506 79.9264687497535
464.40342097007544 51.186705500242894 79.92187304660672
444.2846586479202 53.37203010538193 79.9172773434605
424.1591099073562 55.49627694484094 79.91268164031543
404.0267747483819 57.55605280941559 79.90808593717115
383.8876531709926 59.54796448990278 79.90349023402464
363.7417451751795 61.468618777104595 79.89889453085915
343.58905076094214 63.31462246183796 79.89429882761466
323.4295699283817 65.08258233494381 79.889703124148
303.263302678065 66.76910518722384 79.88510742034683
283.09024901192214 68.37079780900498 79.88051171722388
262.91040893463673 69.88426698831286 79.87591602170372
242.72378244951383 71.3061195061911 79.87132036081026
222.5303695205171 72.63296212935919 79.86672480595364
202.330169913437 73.8614016325089 79.86212944637673
182.12318271906506 74.98804495519498 79.85753396367346
161.9094056413774 76.00950008378568 79.85293556744305
141.68883580481943 76.92237779508632 79.84832234978653
121.46148576366436 77.72329805143097 79.8436602288873
101.22744644533655 78.40886533937689 79.83889505302047
80.98715764315622 78.97563734005801 79.83415528865163
60.74177029655323 79.41910657377915 79.8306552748057
40.49511257139904 79.73432128274601 79.83566011805893
20.247709840116922 79.90372962448086 79.85812627890967
0.0 60.0 80.0
0.0 40.0 80.0
0.0 20.0 80.0
0.0 0.0 20.0
0.0 0.0 40.0
0.0 0.0 60.0
794.6124928297185 -72.02387087742562 19.998903496736055
794.6120399793748 -72.02454536703382 40.00000000007849
794.6124928297127 -72.02387087742783 60.001096503420975
805.3875071702874 7.976129122574335 20.00109650342516
805.3879600206254 7.975454632966191 40.00000000008272
805.3875071702818 7.976129122572161 59.998903496740255
0.0 80.0 20.0
0.0 80.0 40.0
0.0 80.0 60.0
[...]
POINT_DATA 1025
SCALARS CellEntityIds float 1
LOOKUP_TABLE default
0.0
0.24074425986738604
0.24074425986738907
0.0
0.0
0.24074425986740317
0.24074425986740053
0.0
0.001004192891813903
0.0019514360400759035
0.0031908514725120895
0.004774124164724091
0.006720027353169445
0.009033120859295677
0.011712733297831525
0.014754113334865699
0.018149960145209282
0.021891421461382028
0.02596873743662169
0.030371607228835657
0.03508939873915365
0.04011127023476055
0.04542624329606068
0.051023247976365156
0.056891151593606346
0.06301877756074192
0.06939491798467823
0.07600834227096114
0.08284780311215043
0.08990204072813242
0.0971597859169771
0.10460976228269571
0.11224068788449405
0.12004127647358906
0.1280002384319222
0.13610628149301462
0.14434811130194042
0.152714431856604
0.16119394586368405
0.16977535504461094
0.1784473603832527
0.1871986623018334
0.19601795890464727
0.20489393887711976
0.2138152187538368
0.22277030038753623
0.2317476403859368
0.2402328076846061
0.24005959638484575
0.2402328076846063
0.23174764038605278
0.22277030038776477
0.21381521875417708
0.2048939388775705
0.1960179589052072
0.1871986623025002
0.17844736038402348
0.16977535504548305
0.1611939458646537
0.1527144318576677
0.1443481113030938
0.136106281494253
0.12800023843324063
0.12004127647498156
0.11224068788590369
0.1046097622840614
0.09715978591829728
0.08990204072940562
0.08284780311337543
0.0760083422721368
0.06939491798580319
0.06301877756181495
0.05689115159462647
0.051023247977331224
0.04542624329697172
0.04011127023559618
0.03508939873989906
0.030371607229483844
0.02596873743717294
0.021891421461842926
0.018149960145586903
0.014754113335167525
0.011712733298065398
0.009033120859469897
0.0067200273532929235
0.004774124164808187
0.0031908514725647024
0.0019514360401042515
0.0010041928918256926
0.0
0.0
0.0
0.001004192891816179
0.0019514360400805235
0.0031908514725187513
0.0047741241647322715
0.006720027353178736
0.009033120859305802
0.011712733297842311
0.01475411333487703
0.01814996014522104
0.02189142146139414
0.02596873743663416
0.03037160722884839
0.03508939873916666
0.040111270234773795
0.0454262432960742
0.051023247976378895
0.056891151593620445
0.06301877756075619
0.06939491798469274
0.07600834227097587
0.08284780311216525
0.08990204072814742
0.0971597859169923
0.10460976228271114
0.11224068788450964
0.12004127647360487
0.1280002384319383
0.13610628149303095
0.14434811130195666
0.15271443185662056
0.1611939458637008
0.16977535504462785
0.17844736038326955
0.18719866230185037
0.19601795890466397
0.20489393887713617
0.21381521875385368
0.22277030038755313
0.2317476403859538
0.2402328076846217
0.24005959638486007
0.24023280768461922
0.23174764038606402
0.2227703003877757
0.21381521875418769
0.20489393887758045
0.19601795890521673
0.18719866230250948
0.17844736038403244
0.16977535504549118
0.16119394586466157
0.15271443185767508
0.14434811130310052
0.13610628149425927
0.1280002384332461
0.12004127647498643
0.11224068788590782
0.10460976228406492
0.09715978591830016
0.08990204072940798
0.08284780311337722
0.07600834227213793
0.06939491798580372
0.06301877756181487
0.056891151594625704
0.05102324797732984
0.045426243296969745
0.040111270235593556
0.03508939873989591
0.030371607229480138
0.025968737437168685
0.02189142146183818
0.018149960145581633
0.014754113335161814
0.011712733298059313
0.009033120859463539
0.006720027353286474
0.004774124164801921
0.00319085147255906
0.0019514360400998993
0.0010041928918233093
0.0
0.0
0.0
0.0
0.0
0.0
0.24075029043204435
0.24075264504170085
0.2407502904320531
0.240750290432046
0.24075264504170088
0.2407502904320518
0.0
0.0
0.0
0.0004661657966493285
6.808433831272397e-06
0.00046616579665365965
0.0011017529047283568
0.0006105713702751013
0.0011017529047410936
0.0021424489746915227
0.0016692950741433352
0.002142448974716591
0.0036179754543687226
0.0031523231060390992
0.0036179754544098048
0.0055063299306217705
0.00504725525407859
0.0055063299306828285
0.0077917928842678895
0.007339360313829196
0.007791792884354567
0.010461600765407666
0.010016356182338289
0.010461600765524406
0.013504293357733496
0.013066628011189862
0.01350429335788442
0.016908626609062866
0.016478830573736794
0.01690862660925187
0.020663372520631766
0.02024165641076346
0.020663372520862613
0.02475727925116046
0.02434380036365136
0.02475727925143664
0.029179076988252842
0.028773953872471725
0.029179076988577697
0.033917484377085826
0.03352080683565313
0.03391748437745941
0.03896121268092137
0.03857304864949431
0.03896121268134015
0.044298968115086754
0.04391936861177873
0.04429896811554329
0.0499194532811404
0.04954845601423955
0.049919453281624476
0.05581136811943776
0.0554490001547051
0.05581136811994883
0.061963410577864426
0.06160969033441279
0.06196341057840205
0.06836427709403675
0.06801921585575012
0.06836427709460025
0.0750026629486703
0.07466626602136356
0.07500266294925924
0.08186726252791161
0.08153953013392516
0.08186726252852518
0.08894676952054495
0.0886276974960974
0.08894676952118268
0.09622987706810258
0.09591945741053418
0.09622987706876376
0.10370527788053452
0.10340349917988298
0.10370527788121853
0.11136166432640544
0.11106851210678119
0.11136166432711139
0.11918772850407025
0.11890318549385703
0.11918772850476748
0.1271721622984645
0.12689620864379403
0.12717216229912448
0.1353036574271692
0.13503627085969797
0.13530365742778902
0.14357090547878382
0.14331206144634237
0.14357090547936102
0.15196259794624467
0.15171226971311944
0.1519625979467767
0.16046742625638558
0.16022558497487946
0.1604674262568704
0.16907408177883607
0.16884069652592332
0.16907408177927213
0.17777125574763175
0.1775462934406367
0.17777125574801705
0.18654763869893118
0.18633106381752612
0.18654763869926438
0.1953919187337899
0.19518369203557243
0.19539191873406925
0.20429277369387047
0.20409285640895727
0.20429277369409538
0.21323886175827303
0.2130472418706493
0.21323886175844223
0.22221877056423409
0.22203568128642856
0.22221877056434752
0.23122117239270437
0.23104689908634124
0.2312211723927616
0.000907138540388485
0.0009223120334594775
0.0009071385403896857
0.001971419598647954
0.001979255009986332
0.001971419598650335
0.003282657875249633
0.0033126709005096167
0.0032826578752529673
0.0049045940231650575
0.004946432813073096
0.00490459402316912
0.006869139591558921
0.00691745923199804
0.006869139591563539
0.009191529245536666
0.009242950258076761
0.00919152924554171
0.011875405149370681
0.011928228091400803
0.011875405149376054
0.014918012099910795
0.014971241935413748
0.014918012099916436
0.01831309997798863
0.018366101176146815
0.018313099977994497
0.02205245624875414
0.022104795537025677
0.02205245624876021
0.026126732667677028
0.026178106041739636
0.02612673266768322
0.030525900995849398
0.030576090692847013
0.03052590099585578
0.03523951302167955
0.03528836029879559
0.03523951302168607
0.04025685343165838
0.040304240594831786
0.04025685343166502
0.045567032396304996
0.045612870784692096
0.04556703239631174
0.05115904321527464
0.05120326504910002
0.05115904321528151
0.05702179914654387
0.05706435190989594
0.05702179914655089
0.06314415750373722
0.06318500000884314
0.06314415750374436
0.06951493577224933
0.06955403535667956
0.06951493577225652
0.07612292260658989
0.0761602531064765
0.07612292260659723
0.08295688547471365
0.08299242573822302
0.082956885474721
0.09000557606276949
0.09003930884547624
0.09000557606277697
0.09725773415683822
0.09728964529091268
0.09725773415684587
0.10470209047163637
0.10473216823394695
0.10470209047164408
0.11232736873990234
0.11235560336639998
0.11232736873991021
0.12012228727535451
0.1201486705842672
0.12012228727536242
0.12807556015574686
0.12810008525257735
0.12807556015575497
0.13617589812868022
0.1361985591732903
0.13617589812868836
0.14441200931279383
0.1444328013338093
0.144412009312802
0.15277259974648033
0.1527915184915005
0.15277259974648866
0.16124637382163068
0.16126341563234187
0.16124637382163903
0.16982203462951231
0.16983719633764552
0.16982203462952056
0.17848828421920723
0.17850156306799617
0.17848828421921573
0.18723382380441692
0.1872452176296525
0.18723382380442516
0.19604735334682863
0.19605686161932012
0.19604735334683687
0.204917570858196
0.20492520016172625
0.20491757085820436
0.21383315239223666
0.2138389276891899
0.21383315239224512
0.22278278890601255
0.22278678990819856
0.22278278890602102
0.2317554065218708
0.23175810263210778
0.23175540652187937
0.2402384126962702
0.2402413339426246
0.24023841269627833
0.24006470886177983
0.24006804123148362
0.24006470886178718
0.24023841269626983
0.24024133394262356
0.24023841269627655
0.23175540652198534
0.23175810263222069
0.23175540652199092
0.22278278890623932
0.22278678990842396
0.22278278890624492
0.21383315239257528
0.2138389276895268
0.21383315239258047
0.20491757085864507
0.20492520016217375
0.20491757085864998
0.1960473533473863
0.19605686161987596
0.19604735334739115
0.1872338238050813
0.18724521763031501
0.18723382380508585
0.17848828421997578
0.17850156306876264
0.17848828421998025
0.16982203463038156
0.16983719633851274
0.16982203463038595
0.16124637382259752
0.16126341563330637
0.16124637382260157
0.15277259974754098
0.15279151849255865
0.1527725997475447
0.14441200931394393
0.14443280133495684
0.14441200931394724
0.1361758981299153
0.13619855917452242
0.13617589812991832
0.12807556015706165
0.12810008525388916
0.12807556015706442
0.12012228727674343
0.12014867058565296
0.12012228727674577
0.11232736874130811
0.11235560336780258
0.11232736874131019
0.1047020904729981
0.10473216823530529
0.10470209047299983
0.09725773415815436
0.09728964529222539
0.09725773415815586
0.09000557606403857
0.09003930884674191
0.09000557606403978
0.08295688547593441
0.0829924257394403
0.08295688547593533
0.07612292260776114
0.07616025310764421
0.0761229226077617
0.06951493577336983
0.06955403535779632
0.06951493577337017
0.0631441575048058
0.06318500000990786
0.06314415750480581
0.05702179914755945
0.057064351910907564
0.057021799147559116
0.05115904321623609
0.05120326505005743
0.051159043216235434
0.04556703239721138
0.04561287078559441
0.04556703239721043
0.04025685343248933
0.04030424059565853
0.04025685343248808
0.035239513022420246
0.03528836029953202
0.03523951302241871
0.03052590099649293
0.030576090693486255
0.030525900996491145
0.026126732668223653
0.026178106042282014
0.026126732668221624
0.0220524562492105
0.022104795537477774
0.022052456249208218
0.018313099978361804
0.018366101176515742
0.018313099978359296
0.014918012100208315
0.014971241935707088
0.014918012100205585
0.011875405149600476
0.011928228091626532
0.011875405149597581
0.00919152924570712
0.009242950258243331
0.009191529245704112
0.006869139591679083
0.0069174592321146295
0.006869139591676059
0.00490459402324659
0.0049464328131515346
0.004904594023243685
0.003282657875300819
0.0033126709005583733
0.0032826578752982428
0.0019714195986760305
0.001979255010012592
0.0019714195986740646
0.0009071385403997302
0.0009223120334696138
0.0009071385403987248
0.0
0.0
0.0
0.0
0.0
0.0
0.0
0.0
0.0
0.0004661657966513645
6.8084338316744435e-06
0.000466165796651392
0.0011017529047325496
0.0006105713702758861
0.0011017529047374986
0.002142448974696875
0.001669295074144522
0.002142448974712871
0.0036179754543747534
0.003152323106040694
0.0036179754544063795
0.005506329930628304
0.005047255254080587
0.005506329930679825
0.007791792884274847
0.007339360313831605
0.00779179288435203
0.01046160076541501
0.010016356182341115
0.010461600765522362
0.013504293357741223
0.0130666280111931
0.01350429335788288
0.016908626609070908
0.016478830573740423
0.016908626609250826
0.020663372520640128
0.020241656410767497
0.020663372520862085
0.024757279251169134
0.0243438003636558
0.0247572792514366
0.029179076988261835
0.02877395387247654
0.02917907698857815
0.03391748437709509
0.03352080683565833
0.03391748437746034
0.03896121268093091
0.03857304864949987
0.03896121268134157
0.04429896811509658
0.04391936861178471
0.04429896811554523
0.04991945328115062
0.049548456014245935
0.04991945328162697
0.05581136811944832
0.05544900015471195
0.05581136811995186
0.06196341057787527
0.06160969033442004
0.06196341057840561
0.06836427709404794
0.06801921585575785
0.06836427709460435
0.07500266294868176
0.0746662660213716
0.07500266294926382
0.08186726252792333
0.08153953013393361
0.08186726252853024
0.08894676952055688
0.0886276974961063
0.08894676952118823
0.0962298770681148
0.09591945741054325
0.09622987706876973
0.10370527788054712
0.10340349917989257
0.10370527788122501
0.11136166432641831
0.11106851210679118
0.11136166432711844
0.11918772850408332
0.11890318549386755
0.11918772850477515
0.127172162298478
0.12689620864380488
0.12717216229913267
0.13530365742718303
0.13503627085970926
0.13530365742779785
0.1435709054787978
0.14331206144635397
0.14357090547937018
0.15196259794625902
0.1517122697131316
0.1519625979467865
0.16046742625640015
0.16022558497489198
0.16046742625688062
0.16907408177885094
0.1688406965259361
0.16907408177928257
0.17777125574764674
0.1775462934406497
0.1777712557480281
0.1865476386989462
0.18633106381753933
0.18654763869927554
0.1953919187338047
0.1951836920355855
0.19539191873408057
0.20429277369388532
0.20409285640897062
0.20429277369410703
0.2132388617582881
0.21304724187066296
0.21323886175845447
0.2222187705642494
0.22203568128644247
0.22221877056436
0.23122117239272005
0.23104689908635528
0.23122117239277418
0.0004119303796504577
0.00041613204741697816
0.00041193037965140593
0.00014730046659775694
0.0001770063136602723
0.00014730046659795022
0.0004119303796543377
0.0004161320474201424
0.0004119303796534981
0.0011879594769108716
0.0012172641248098669
0.0011879594769128464
0.0007955393679379458
0.0008525021826885743
0.000795539367938338
0.0011879594769225654
0.0012172641248201542
0.0011879594769210768
0.0022971854266697943
0.002346639789314114
0.0022971854266723574
0.001871620584534372
0.0019368373910173238
0.001871620584534967
0.0022971854266931025
0.0023466397893355372
0.0022971854266914706
0.0037957806216112103
0.0038542098130837656
0.0037957806216141416
0.003355752004613654
0.0034233827518668535
0.0033557520046144525
0.003795780621650099
0.003854209813120525
0.003795780621648546
0.0056903678557620185
0.005751277369487504
0.005690367855765223
0.0052464881348395775
0.005313458367348703
0.00524648813484058
0.0056903678558206895
0.0057512773695439145
0.005690367855819299
0.007975867791849183
0.008036926415574287
0.007975867791852626
0.007533081126596553
0.007598381029953459
0.00753308112659776
0.007975867791933395
0.008036926415656183
0.007975867791932208
0.01064326674242737
0.010703530387881207
0.010643266742431013
0.010204337874092128
0.010267744903934495
0.010204337874093534
0.010643266742541605
0.01070353038799311
0.010643266742540652
0.013682354640399703
0.013741413869740206
0.013682354640403524
0.013248880766919864
0.013310357176761612
0.013248880766921475
0.013682354640548088
0.013741413869886266
0.013682354640547366
0.017082399902198505
0.017140031769855395
0.017082399902202516
0.016655375457550567
0.016714924616938374
0.01665537545755239
0.017082399902384988
0.017140031770039546
0.017082399902384516
0.02083242776184676
0.020888494310679795
0.020832427761850937
0.020412503221176593
0.020470129174019278
0.020412503221178605
0.02083242776207508
0.020888494310905854
0.020832427762074848
0.02492133313549299
0.024975742443935595
0.02492133313549731
0.024508951854309832
0.02456465640487381
0.024508951854312046
0.02492133313576667
0.02497574244420701
0.024921333135766673
0.029337937076977978
0.02939062590270201
0.029337937076982443
0.028933410551167327
0.02898719418673189
0.02893341055116974
0.0293379370773003
0.029390625903022077
0.029337937077300553
0.03407101655720784
0.034121940354025396
0.034071016557212494
0.033674568701918296
0.0337264315082023
0.03367456870192088
0.03407101655757892
0.03412194035439428
0.0340710165575794
0.03910932122857285
0.039158447959356635
0.03910932122857764
0.038721115659774444
0.03877105763436848
0.03872111565977719
0.0391093212289892
0.03915844795977076
0.039109321228989906
0.044441583210902434
0.04448888937118752
0.04444158321090737
0.044061740744603305
0.04410976187909883
0.044061740744606274
0.044441583211356515
0.044488889371639535
0.04444158321135749
0.05005652301323859
0.05010199104068764
0.05005652301324368
0.049685133263001426
0.04973123355344756
0.049685133263004645
0.0500565230137203
0.05010199104116724
0.05005652301372153
0.055942853236651734
0.05598646979251275
0.055942853236656986
0.05557998251805074
0.0556241619632688
0.05557998251805418
0.05594285323716045
0.05598646979301948
0.05594285323716197
0.062089280962066506
0.06213103576782883
0.06208928096207194
0.061734977812262344
0.06177723641202077
0.061734977812265994
0.06208928096260185
0.062131035768362194
0.06208928096260366
0.0684845093335613
0.06852439436673209
0.06848450933356687
0.06813880844818265
0.06817914620247222
0.06813880844818646
0.06848450933412253
0.06852439436729141
0.06848450933412462
0.07511723863456968
0.07515524756167416
0.07511723863457542
0.07478016372842436
0.07481858063726071
0.07478016372842844
0.07511723863515635
0.07515524756225894
0.07511723863515866
0.08197616703574609
0.08201229480540054
0.08197616703575189
0.08164773295562965
0.0816842290190211
0.0816477329556339
0.08197616703635743
0.08201229480601017
0.08197616703636003
0.08904999112507545
0.0890842336712505
0.08904999112508136
0.08873020543244882
0.08876478065039826
0.08873020543245318
0.089049991125711
0.08908423367188437
0.0890499911257138
0.09632740629044884
0.09635976031295773
0.09632740629045494
0.09601627046153353
0.09604892483404265
0.09601627046153809
0.09632740629110795
0.09635976031361515
0.09632740629111096
0.10379710700034875
0.1038275698003388
0.10379710700035509
0.1034946173455359
0.10352535087260889
0.10349461734554068
0.10379710700103076
0.10382756980101898
0.10379710700103399
0.11144778701294072
0.11147635636813634
0.11144778701294718
0.11115393538711041
0.11118274806875866
0.11115393538711549
0.11144778701364459
0.11147635636883872
0.11144778701364814
0.11926813953408355
0.11929481360313979
0.11926813953409009
0.11898291388892451
0.11900980572516605
0.11898291388892972
0.11926813953477884
0.11929481360383355
0.11926813953478266
0.12724685733830984
0.12727163458671584
0.12724685733831664
0.12697024215368669
0.12699521314448706
0.12697024215369218
0.127246857338968
0.1272716345873726
0.1272468573389721
0.13537263286271706
0.13539551200471336
0.13537263286272389
0.135104609484188
0.13512765962916173
0.13510460948419353
0.13537263286333523
0.13539551200532993
0.13537263286333948
0.14363415828066467
0.14365513823289805
0.14363415828067175
0.14337470518320056
0.14339583448056945
0.14337470518320639
0.1436341582812403
0.14365513823347237
0.14363415828124484
0.15202012555974453
0.15203920540310048
0.1520201255597517
0.15176921855251074
0.1517884269970109
0.1517692185525168
0.15202012556027508
0.15203920540362972
0.15202012556027994
0.16051922650634137
0.16053640545567507
0.16051922650634873
0.16027683888836786
0.16029412647050953
0.16027683888837407
0.16051922650682485
0.16053640545615727
0.16051922650682998
0.16912015279503045
0.16913543018728588
0.1691201527950378
0.16888625546827926
0.1689016222018178
0.16888625546828565
0.16912015279546497
0.16913543018771962
0.16912015279547046
0.17781159599134758
0.17782497137657396
0.17781159599135504
0.17758615751298287
0.1775996035754463
0.1775861575129893
0.1778115959917318
0.17782497137695713
0.1778115959917372
0.18658224756726235
0.1865937211098319
0.1865822475672698
0.18636523416401818
0.18637676056780106
0.18636523416402487
0.18658224756759442
0.186593721110163
0.1865822475676
0.19542079933775405
0.1954303736473676
0.1954207993377613
0.19521217449838152
0.19522178478756555
0.19521217449838807
0.19542079933803244
0.19543037364764498
0.1954207993380382
0.2043159439528371
0.2043236278699697
0.20431594395284447
0.2041156719837463
0.20412337874707315
0.2041156719837528
0.204315943953061
0.20432362787019287
0.20431594395306668
0.21325638670198072
0.2132622103486987
0.21325638670198838
0.21306444698903867
0.2130702847687501
0.21306444698904545
0.2132563867021493