# vtk DataFile Version 2.0
mesh vtk view
ASCII
DATASET UNSTRUCTURED_GRID
POINTS 1025 double
0.0 0.0 0.0
794.8538807854829 -68.82122167664365 -0.0016311313924073213
805.1461192145281 11.178778323356312 0.0016311315464248475
0.0 80.0 0.0
0.0 0.0 80.0
794.853880785472 -68.82122167664774 80.00163113154247
805.1461192145173 11.178778323352219 79.9983688686116
0.0 80.0 80.0
19.763299486170446 -0.09199169216144912 -0.13556822237465493
39.52689243188906 -0.2538707742594606 -0.15703588718811792
59.2911972723585 -0.5550759405986171 -0.16181829296382022
79.05671603011884 -0.9788354305896259 -0.158473835289084
98.82710673032449 -1.5204175645622613 -0.15394472711460425
118.60346915951511 -2.1755151952512923 -0.14939133684201683
138.38622356466774 -2.940838995740979 -0.14493642131625845
158.17545683199086 -3.8131443642973513 -0.1405282355557422
177.97118095779004 -4.789201487150877 -0.1361342124913062
197.77339319431277 -5.865771773248943 -0.13174297346390584
217.58209134758087 -7.039613965121364 -0.12735185209057093
237.39727454879505 -8.307485805009456 -0.12296054411664194
257.21894257417955 -9.666144877620493 -0.11856913481860598
277.04709538932156 -11.112348760044135 -0.11417769243279932
296.8817329972688 -12.642855043057576 -0.1097862427821087
316.7228554024882 -14.254421324109195 -0.10539479248335791
336.57046260689697 -15.943805202839075 -0.10100334250422369
356.4245546110366 -17.70776427934668 -0.09661189273739733
376.28513141500366 -19.54305615376889 -0.09222044304604958
396.1521930187981 -21.44643842621971 -0.08782899337284716
416.0257394224112 -23.414668696798913 -0.08343754370178229
435.9057706258387 -25.444504565601306 -0.07904609402991379
455.7922866290789 -27.532703632720544 -0.07465464435699766
475.6852874321296 -29.676023498249936 -0.07026319468352948
495.5847730349851 -31.871221762280875 -0.06587174501452105
515.4907434377103 -34.11505602490599 -0.06148029537479708
535.4031986403057 -36.4042838861893 -0.05708884584620489
555.3221386428746 -38.735662946165085 -0.05269739660216421
575.2475634462536 -41.105950804954844 -0.04830594767375443
595.1794730531346 -43.511905063442654 -0.04391449726911353
615.1178674690457 -45.9502833254831 -0.03952303504386855
635.0627466931214 -48.41784320455813 -0.03513152423243422
655.0141106620297 -50.91134232451816 -0.030739876592625354
674.9719590185277 -53.427538296108494 -0.026348037574916768
694.9362906072093 -55.96318812645381 -0.02195669388630239
714.9071020077134 -58.51504602390036 -0.017571641946891866
734.8843862346658 -61.07984524947153 -0.013217070219186822
754.8680996433077 -63.654283263346635 -0.009004141621537459
774.8580615844393 -66.23503449189596 -0.0049358591585564
797.4318939408403 -48.81883798773889 -3.0616966684484643e-05
799.9999999999977 -28.81708429704993 7.703788081878499e-11
802.568106059162 -8.81883798773218 3.06171207269536e-05
785.1419384156045 13.764965508071555 0.004935859307111294
765.1319003567692 16.345716736588578 0.009004141764575112
745.1156137654442 18.920154750431593 0.013217070356728006
725.0928979924297 21.484953975971045 0.01757164207891856
705.0637093929673 24.03681187338624 0.021956694012765007
685.0280409816825 26.572461703700874 0.026348037695892015
664.9858893382143 29.08865767526136 0.030739876708162965
644.9372533071564 31.582156795192283 0.03513152434245686
624.8821325312663 34.04971667423931 0.0395230351484955
604.8205269472114 36.488094936252736 0.043914497368308464
584.7524365541269 38.89404919471479 0.04830594776757672
564.6778613575402 41.26433705348013 0.052697396690655436
544.5968013601437 43.595716113432914 0.05708884592941052
524.509256562774 45.884943974694934 0.06148029545283055
504.41522696553346 48.12877823731514 0.06587174508746922
484.3147125684225 50.32397650135874 0.07026319475149514
464.20771337150677 52.46729636690124 0.07465464442010478
444.0942293747804 54.55549543403401 0.07904609408826908
423.9742605782412 56.585331302850285 0.08343754375549906
403.84780698188774 58.55356157344369 0.08782899342205291
383.7148685857155 60.456943845909116 0.0922204430908942
363.575445389716 62.29223572034627 0.09661189277803152
343.42953739388884 64.05619479686912 0.10100334254078629
323.2771445983308 65.74557867561457 0.1053947925160246
303.1182670035833 67.35714495668203 0.10978624281104084
282.95290461148755 68.8876512397172 0.11417769245817995
262.7810574265193 70.33385512216685 0.11856913484064835
242.60272545183952 71.69251419480591 0.12296054413555697
222.4179086530137 72.96038603472198 0.1273518521065811
202.22660680624153 74.13422822662046 0.1317429734772285
182.02881904272377 75.21079851274258 0.1361342125021519
161.82454316848208 76.18685563561803 0.14052823556434502
141.61377643576438 77.05916100419407 0.1449364213228611
121.39653084087601 77.82448480470104 0.14939133684686404
101.17289327002261 78.4795824354048 0.15394472711795723
80.94328397015454 79.02116456938886 0.1584738352912258
60.708802727838155 79.44492405938892 0.16181829296510847
40.473107568239506 79.74612922573492 0.157035887188968
20.23670051389638 79.90800830783705 0.13556822237553165
0.0 60.0 0.0
0.0 40.0 0.0
0.0 20.0 0.0
19.763299486169885 -0.09199169216187188 80.13556822237477
39.526892431887944 -0.25387077426005433 80.1570358871885
59.291197272356825 -0.555075940599339 80.1618182929648
79.0567160301166 -0.9788354305904545 80.15847383529095
98.82710673032173 -1.5204175645631948 80.15394472711763
118.60346915951183 -2.175515195252329 80.14939133684648
138.38622356466396 -2.9408389957421237 80.14493642132241
158.17545683198657 -3.8131443642986054 80.14052823556383
177.9711809577853 -4.789201487152233 80.13613421250157
197.77339319430757 -5.865771773250396 80.13174297347659
217.58209134757521 -7.0396139651229275 80.12735185210587
237.39727454878897 -8.307485805011112 80.1229605441348
257.2189425741731 -9.666144877622251 80.11856913483983
277.0470953893147 -11.112348760045988 80.11417769245728
296.88173299726157 -12.642855043059539 80.10978624281003
316.7228554024806 -14.254421324111258 80.1053947925149
336.570462606889 -15.94380520284128 80.10100334253954
356.4245546110284 -17.707764279348975 80.09661189277666
376.28513141499513 -19.543056153771296 80.09222044308943
396.15219301878926 -21.446438426222226 80.08782899342049
416.0257394224021 -23.41466869680149 80.08343754375383
435.9057706258294 -25.444504565603985 80.07904609408651
455.79228662906934 -27.532703632723322 80.07465464441825
475.6852874321198 -29.676023498252828 80.07026319474954
495.58477303497517 -31.871221762283863 80.06587174508537
515.4907434377002 -34.11505602490909 80.0614802954506
535.4031986402955 -36.40428388619252 80.05708884592698
555.3221386428642 -38.73566294616842 80.05269739668805
575.247563446243 -41.10595080495821 80.04830594776483
595.1794730531241 -43.51190506344615 80.04391449736539
615.117867469035 -45.9502833254867 80.03952303514541
635.0627466931106 -48.41784320456183 80.03513152433926
655.0141106620189 -50.91134232452188 80.03073987670483
674.9719590185169 -53.427538296112296 80.02634803769244
694.9362906071985 -55.96318812645759 80.02195669400925
714.9071020077026 -58.5150460239041 80.01757164207528
734.8843862346549 -61.07984524947544 80.01321707035295
754.8680996432968 -63.6542832633506 80.00900414176064
774.8580615844284 -66.23503449190001 80.00493585930316
797.4318939408294 -48.81883798774297 80.00003061711874
799.9999999999868 -28.817084297054038 80.00000000007702
802.5681060591512 -8.818837987736273 79.9999693830353
785.1419384155936 13.764965508067462 79.99506414084551
765.1319003567583 16.345716736584535 79.99099585838259
745.1156137654333 18.920154750427606 79.98678292978492
725.0928979924188 21.484953975967194 79.98242835805715
705.0637093929564 24.03681187338247 79.97804330611777
685.0280409816717 26.572461703697122 79.97365196242917
664.9858893382035 29.08865767525765 79.96926012341142
644.9372533071457 31.58215679518876 79.9648684757716
624.8821325312556 34.04971667423581 79.96047696496014
604.8205269472008 36.48809493624933 79.95608550273487
584.7524365541163 38.89404919471151 79.9516940523302
564.6778613575299 41.264337053476936 79.94730260340174
544.5968013601334 43.5957161134299 79.94291115415761
524.5092565627639 45.88494397469204 79.93851970462894
504.4152269655235 48.1287782373124 79.93412825498913
484.31471256841274 50.32397650135613 79.92973680532002
464.20771337149716 52.467296366898765 79.92534535564643
444.0942293747711 54.55549543403163 79.92095390597338
423.97426057823213 56.58533130284802 79.9165624563014
403.84780698187893 58.55356157344156 79.91217100663022
383.714868585707 60.456943845907105 79.90777955695688
363.57544538970774 62.292235720344394 79.90338810726541
343.42953739388093 64.05619479686739 79.89899665749846
323.27714459832316 65.74557867561296 79.89460520751919
303.1182670035761 67.35714495668057 79.89021375722031
282.9529046114807 68.88765123971588 79.8858223075695
262.7810574265128 70.33385512216563 79.88143086518355
242.60272545183346 71.69251419480482 79.87703945588537
222.41790865300806 72.960386034721 79.87264814791126
202.2266068062363 74.13422822661961 79.86825702653776
182.02881904271902 75.21079851274186 79.86386578751019
161.82454316847782 76.18685563561743 79.85947176444559
141.61377643576057 77.0591610041936 79.8550635786849
121.39653084087273 77.8244848047007 79.85060866315898
101.17289327001984 78.47958243540458 79.84605527288622
80.94328397015231 79.02116456938877 79.84152616471155
60.70880272783648 79.44492405938897 79.83818170703655
40.47310756823838 79.74612922573507 79.84296411281186
20.23670051389582 79.90800830783726 79.86443177762479
0.0 60.0 80.0
0.0 40.0 80.0
0.0 20.0 80.0
0.0 0.0 20.0
0.0 0.0 40.0
0.0 0.0 60.0
794.8519375928421 -68.82280994954003 19.998952230214453
794.8515048691803 -68.82345446183231 40.000000000075
794.8519375928366 -68.82280994954213 60.001047769935596
805.1480624071636 11.177190050459927 20.001047769939596
805.1484951308198 11.176545538167701 40.00000000007904
805.1480624071581 11.177190050457853 59.998952230218464
0.0 80.0 20.0
0.0 80.0 40.0
0.0 80.0 60.0
[...]
POINT_DATA 1025
SCALARS CellEntityIds float 1
LOOKUP_TABLE default
0.0
0.24074425986738604
0.24074425986738907
0.0
0.0
0.24074425986740317
0.24074425986740053
0.0
0.001004192891813903
0.0019514360400759035
0.0031908514725120895
0.004774124164724091
0.006720027353169445
0.009033120859295677
0.011712733297831525
0.014754113334865699
0.018149960145209282
0.021891421461382028
0.02596873743662169
0.030371607228835657
0.03508939873915365
0.04011127023476055
0.04542624329606068
0.051023247976365156
0.056891151593606346
0.06301877756074192
0.06939491798467823
0.07600834227096114
0.08284780311215043
0.08990204072813242
0.0971597859169771
0.10460976228269571
0.11224068788449405
0.12004127647358906
0.1280002384319222
0.13610628149301462
0.14434811130194042
0.152714431856604
0.16119394586368405
0.16977535504461094
0.1784473603832527
0.1871986623018334
0.19601795890464727
0.20489393887711976
0.2138152187538368
0.22277030038753623
0.2317476403859368
0.2402328076846061
0.24005959638484575
0.2402328076846063
0.23174764038605278
0.22277030038776477
0.21381521875417708
0.2048939388775705
0.1960179589052072
0.1871986623025002
0.17844736038402348
0.16977535504548305
0.1611939458646537
0.1527144318576677
0.1443481113030938
0.136106281494253
0.12800023843324063
0.12004127647498156
0.11224068788590369
0.1046097622840614
0.09715978591829728
0.08990204072940562
0.08284780311337543
0.0760083422721368
0.06939491798580319
0.06301877756181495
0.05689115159462647
0.051023247977331224
0.04542624329697172
0.04011127023559618
0.03508939873989906
0.030371607229483844
0.02596873743717294
0.021891421461842926
0.018149960145586903
0.014754113335167525
0.011712733298065398
0.009033120859469897
0.0067200273532929235
0.004774124164808187
0.0031908514725647024
0.0019514360401042515
0.0010041928918256926
0.0
0.0
0.0
0.001004192891816179
0.0019514360400805235
0.0031908514725187513
0.0047741241647322715
0.006720027353178736
0.009033120859305802
0.011712733297842311
0.01475411333487703
0.01814996014522104
0.02189142146139414
0.02596873743663416
0.03037160722884839
0.03508939873916666
0.040111270234773795
0.0454262432960742
0.051023247976378895
0.056891151593620445
0.06301877756075619
0.06939491798469274
0.07600834227097587
0.08284780311216525
0.08990204072814742
0.0971597859169923
0.10460976228271114
0.11224068788450964
0.12004127647360487
0.1280002384319383
0.13610628149303095
0.14434811130195666
0.15271443185662056
0.1611939458637008
0.16977535504462785
0.17844736038326955
0.18719866230185037
0.19601795890466397
0.20489393887713617
0.21381521875385368
0.22277030038755313
0.2317476403859538
0.2402328076846217
0.24005959638486007
0.24023280768461922
0.23174764038606402
0.2227703003877757
0.21381521875418769
0.20489393887758045
0.19601795890521673
0.18719866230250948
0.17844736038403244
0.16977535504549118
0.16119394586466157
0.15271443185767508
0.14434811130310052
0.13610628149425927
0.1280002384332461
0.12004127647498643
0.11224068788590782
0.10460976228406492
0.09715978591830016
0.08990204072940798
0.08284780311337722
0.07600834227213793
0.06939491798580372
0.06301877756181487
0.056891151594625704
0.05102324797732984
0.045426243296969745
0.040111270235593556
0.03508939873989591
0.030371607229480138
0.025968737437168685
0.02189142146183818
0.018149960145581633
0.014754113335161814
0.011712733298059313
0.009033120859463539
0.006720027353286474
0.004774124164801921
0.00319085147255906
0.0019514360400998993
0.0010041928918233093
0.0
0.0
0.0
0.0
0.0
0.0
0.24075029043204435
0.24075264504170085
0.2407502904320531
0.240750290432046
0.24075264504170088
0.2407502904320518
0.0
0.0
0.0
0.0004661657966493285
6.808433831272397e-06
0.00046616579665365965
0.0011017529047283568
0.0006105713702751013
0.0011017529047410936
0.0021424489746915227
0.0016692950741433352
0.002142448974716591
0.0036179754543687226
0.0031523231060390992
0.0036179754544098048
0.0055063299306217705
0.00504725525407859
0.0055063299306828285
0.0077917928842678895
0.007339360313829196
0.007791792884354567
0.010461600765407666
0.010016356182338289
0.010461600765524406
0.013504293357733496
0.013066628011189862
0.01350429335788442
0.016908626609062866
0.016478830573736794
0.01690862660925187
0.020663372520631766
0.02024165641076346
0.020663372520862613
0.02475727925116046
0.02434380036365136
0.02475727925143664
0.029179076988252842
0.028773953872471725
0.029179076988577697
0.033917484377085826
0.03352080683565313
0.03391748437745941
0.03896121268092137
0.03857304864949431
0.03896121268134015
0.044298968115086754
0.04391936861177873
0.04429896811554329
0.0499194532811404
0.04954845601423955
0.049919453281624476
0.05581136811943776
0.0554490001547051
0.05581136811994883
0.061963410577864426
0.06160969033441279
0.06196341057840205
0.06836427709403675
0.06801921585575012
0.06836427709460025
0.0750026629486703
0.07466626602136356
0.07500266294925924
0.08186726252791161
0.08153953013392516
0.08186726252852518
0.08894676952054495
0.0886276974960974
0.08894676952118268
0.09622987706810258
0.09591945741053418
0.09622987706876376
0.10370527788053452
0.10340349917988298
0.10370527788121853
0.11136166432640544
0.11106851210678119
0.11136166432711139
0.11918772850407025
0.11890318549385703
0.11918772850476748
0.1271721622984645
0.12689620864379403
0.12717216229912448
0.1353036574271692
0.13503627085969797
0.13530365742778902
0.14357090547878382
0.14331206144634237
0.14357090547936102
0.15196259794624467
0.15171226971311944
0.1519625979467767
0.16046742625638558
0.16022558497487946
0.1604674262568704
0.16907408177883607
0.16884069652592332
0.16907408177927213
0.17777125574763175
0.1775462934406367
0.17777125574801705
0.18654763869893118
0.18633106381752612
0.18654763869926438
0.1953919187337899
0.19518369203557243
0.19539191873406925
0.20429277369387047
0.20409285640895727
0.20429277369409538
0.21323886175827303
0.2130472418706493
0.21323886175844223
0.22221877056423409
0.22203568128642856
0.22221877056434752
0.23122117239270437
0.23104689908634124
0.2312211723927616
0.000907138540388485
0.0009223120334594775
0.0009071385403896857
0.001971419598647954
0.001979255009986332
0.001971419598650335
0.003282657875249633
0.0033126709005096167
0.0032826578752529673
0.0049045940231650575
0.004946432813073096
0.00490459402316912
0.006869139591558921
0.00691745923199804
0.006869139591563539
0.009191529245536666
0.009242950258076761
0.00919152924554171
0.011875405149370681
0.011928228091400803
0.011875405149376054
0.014918012099910795
0.014971241935413748
0.014918012099916436
0.01831309997798863
0.018366101176146815
0.018313099977994497
0.02205245624875414
0.022104795537025677
0.02205245624876021
0.026126732667677028
0.026178106041739636
0.02612673266768322
0.030525900995849398
0.030576090692847013
0.03052590099585578
0.03523951302167955
0.03528836029879559
0.03523951302168607
0.04025685343165838
0.040304240594831786
0.04025685343166502
0.045567032396304996
0.045612870784692096
0.04556703239631174
0.05115904321527464
0.05120326504910002
0.05115904321528151
0.05702179914654387
0.05706435190989594
0.05702179914655089
0.06314415750373722
0.06318500000884314
0.06314415750374436
0.06951493577224933
0.06955403535667956
0.06951493577225652
0.07612292260658989
0.0761602531064765
0.07612292260659723
0.08295688547471365
0.08299242573822302
0.082956885474721
0.09000557606276949
0.09003930884547624
0.09000557606277697
0.09725773415683822
0.09728964529091268
0.09725773415684587
0.10470209047163637
0.10473216823394695
0.10470209047164408
0.11232736873990234
0.11235560336639998
0.11232736873991021
0.12012228727535451
0.1201486705842672
0.12012228727536242
0.12807556015574686
0.12810008525257735
0.12807556015575497
0.13617589812868022
0.1361985591732903
0.13617589812868836
0.14441200931279383
0.1444328013338093
0.144412009312802
0.15277259974648033
0.1527915184915005
0.15277259974648866
0.16124637382163068
0.16126341563234187
0.16124637382163903
0.16982203462951231
0.16983719633764552
0.16982203462952056
0.17848828421920723
0.17850156306799617
0.17848828421921573
0.18723382380441692
0.1872452176296525
0.18723382380442516
0.19604735334682863
0.19605686161932012
0.19604735334683687
0.204917570858196
0.20492520016172625
0.20491757085820436
0.21383315239223666
0.2138389276891899
0.21383315239224512
0.22278278890601255
0.22278678990819856
0.22278278890602102
0.2317554065218708
0.23175810263210778
0.23175540652187937
0.2402384126962702
0.2402413339426246
0.24023841269627833
0.24006470886177983
0.24006804123148362
0.24006470886178718
0.24023841269626983
0.24024133394262356
0.24023841269627655
0.23175540652198534
0.23175810263222069
0.23175540652199092
0.22278278890623932
0.22278678990842396
0.22278278890624492
0.21383315239257528
0.2138389276895268
0.21383315239258047
0.20491757085864507
0.20492520016217375
0.20491757085864998
0.1960473533473863
0.19605686161987596
0.19604735334739115
0.1872338238050813
0.18724521763031501
0.18723382380508585
0.17848828421997578
0.17850156306876264
0.17848828421998025
0.16982203463038156
0.16983719633851274
0.16982203463038595
0.16124637382259752
0.16126341563330637
0.16124637382260157
0.15277259974754098
0.15279151849255865
0.1527725997475447
0.14441200931394393
0.14443280133495684
0.14441200931394724
0.1361758981299153
0.13619855917452242
0.13617589812991832
0.12807556015706165
0.12810008525388916
0.12807556015706442
0.12012228727674343
0.12014867058565296
0.12012228727674577
0.11232736874130811
0.11235560336780258
0.11232736874131019
0.1047020904729981
0.10473216823530529
0.10470209047299983
0.09725773415815436
0.09728964529222539
0.09725773415815586
0.09000557606403857
0.09003930884674191
0.09000557606403978
0.08295688547593441
0.0829924257394403
0.08295688547593533
0.07612292260776114
0.07616025310764421
0.0761229226077617
0.06951493577336983
0.06955403535779632
0.06951493577337017
0.0631441575048058
0.06318500000990786
0.06314415750480581
0.05702179914755945
0.057064351910907564
0.057021799147559116
0.05115904321623609
0.05120326505005743
0.051159043216235434
0.04556703239721138
0.04561287078559441
0.04556703239721043
0.04025685343248933
0.04030424059565853
0.04025685343248808
0.035239513022420246
0.03528836029953202
0.03523951302241871
0.03052590099649293
0.030576090693486255
0.030525900996491145
0.026126732668223653
0.026178106042282014
0.026126732668221624
0.0220524562492105
0.022104795537477774
0.022052456249208218
0.018313099978361804
0.018366101176515742
0.018313099978359296
0.014918012100208315
0.014971241935707088
0.014918012100205585
0.011875405149600476
0.011928228091626532
0.011875405149597581
0.00919152924570712
0.009242950258243331
0.009191529245704112
0.006869139591679083
0.0069174592321146295
0.006869139591676059
0.00490459402324659
0.0049464328131515346
0.004904594023243685
0.003282657875300819
0.0033126709005583733
0.0032826578752982428
0.0019714195986760305
0.001979255010012592
0.0019714195986740646
0.0009071385403997302
0.0009223120334696138
0.0009071385403987248
0.0
0.0
0.0
0.0
0.0
0.0
0.0
0.0
0.0
0.0004661657966513645
6.8084338316744435e-06
0.000466165796651392
0.0011017529047325496
0.0006105713702758861
0.0011017529047374986
0.002142448974696875
0.001669295074144522
0.002142448974712871
0.0036179754543747534
0.003152323106040694
0.0036179754544063795
0.005506329930628304
0.005047255254080587
0.005506329930679825
0.007791792884274847
0.007339360313831605
0.00779179288435203
0.01046160076541501
0.010016356182341115
0.010461600765522362
0.013504293357741223
0.0130666280111931
0.01350429335788288
0.016908626609070908
0.016478830573740423
0.016908626609250826
0.020663372520640128
0.020241656410767497
0.020663372520862085
0.024757279251169134
0.0243438003636558
0.0247572792514366
0.029179076988261835
0.02877395387247654
0.02917907698857815
0.03391748437709509
0.03352080683565833
0.03391748437746034
0.03896121268093091
0.03857304864949987
0.03896121268134157
0.04429896811509658
0.04391936861178471
0.04429896811554523
0.04991945328115062
0.049548456014245935
0.04991945328162697
0.05581136811944832
0.05544900015471195
0.05581136811995186
0.06196341057787527
0.06160969033442004
0.06196341057840561
0.06836427709404794
0.06801921585575785
0.06836427709460435
0.07500266294868176
0.0746662660213716
0.07500266294926382
0.08186726252792333
0.08153953013393361
0.08186726252853024
0.08894676952055688
0.0886276974961063
0.08894676952118823
0.0962298770681148
0.09591945741054325
0.09622987706876973
0.10370527788054712
0.10340349917989257
0.10370527788122501
0.11136166432641831
0.11106851210679118
0.11136166432711844
0.11918772850408332
0.11890318549386755
0.11918772850477515
0.127172162298478
0.12689620864380488
0.12717216229913267
0.13530365742718303
0.13503627085970926
0.13530365742779785
0.1435709054787978
0.14331206144635397
0.14357090547937018
0.15196259794625902
0.1517122697131316
0.1519625979467865
0.16046742625640015
0.16022558497489198
0.16046742625688062
0.16907408177885094
0.1688406965259361
0.16907408177928257
0.17777125574764674
0.1775462934406497
0.1777712557480281
0.1865476386989462
0.18633106381753933
0.18654763869927554
0.1953919187338047
0.1951836920355855
0.19539191873408057
0.20429277369388532
0.20409285640897062
0.20429277369410703
0.2132388617582881
0.21304724187066296
0.21323886175845447
0.2222187705642494
0.22203568128644247
0.22221877056436
0.23122117239272005
0.23104689908635528
0.23122117239277418
0.0004119303796504577
0.00041613204741697816
0.00041193037965140593
0.00014730046659775694
0.0001770063136602723
0.00014730046659795022
0.0004119303796543377
0.0004161320474201424
0.0004119303796534981
0.0011879594769108716
0.0012172641248098669
0.0011879594769128464
0.0007955393679379458
0.0008525021826885743
0.000795539367938338
0.0011879594769225654
0.0012172641248201542
0.0011879594769210768
0.0022971854266697943
0.002346639789314114
0.0022971854266723574
0.001871620584534372
0.0019368373910173238
0.001871620584534967
0.0022971854266931025
0.0023466397893355372
0.0022971854266914706
0.0037957806216112103
0.0038542098130837656
0.0037957806216141416
0.003355752004613654
0.0034233827518668535
0.0033557520046144525
0.003795780621650099
0.003854209813120525
0.003795780621648546
0.0056903678557620185
0.005751277369487504
0.005690367855765223
0.0052464881348395775
0.005313458367348703
0.00524648813484058
0.0056903678558206895
0.0057512773695439145
0.005690367855819299
0.007975867791849183
0.008036926415574287
0.007975867791852626
0.007533081126596553
0.007598381029953459
0.00753308112659776
0.007975867791933395
0.008036926415656183
0.007975867791932208
0.01064326674242737
0.010703530387881207
0.010643266742431013
0.010204337874092128
0.010267744903934495
0.010204337874093534
0.010643266742541605
0.01070353038799311
0.010643266742540652
0.013682354640399703
0.013741413869740206
0.013682354640403524
0.013248880766919864
0.013310357176761612
0.013248880766921475
0.013682354640548088
0.013741413869886266
0.013682354640547366
0.017082399902198505
0.017140031769855395
0.017082399902202516
0.016655375457550567
0.016714924616938374
0.01665537545755239
0.017082399902384988
0.017140031770039546
0.017082399902384516
0.02083242776184676
0.020888494310679795
0.020832427761850937
0.020412503221176593
0.020470129174019278
0.020412503221178605
0.02083242776207508
0.020888494310905854
0.020832427762074848
0.02492133313549299
0.024975742443935595
0.02492133313549731
0.024508951854309832
0.02456465640487381
0.024508951854312046
0.02492133313576667
0.02497574244420701
0.024921333135766673
0.029337937076977978
0.02939062590270201
0.029337937076982443
0.028933410551167327
0.02898719418673189
0.02893341055116974
0.0293379370773003
0.029390625903022077
0.029337937077300553
0.03407101655720784
0.034121940354025396
0.034071016557212494
0.033674568701918296
0.0337264315082023
0.03367456870192088
0.03407101655757892
0.03412194035439428
0.0340710165575794
0.03910932122857285
0.039158447959356635
0.03910932122857764
0.038721115659774444
0.03877105763436848
0.03872111565977719
0.0391093212289892
0.03915844795977076
0.039109321228989906
0.044441583210902434
0.04448888937118752
0.04444158321090737
0.044061740744603305
0.04410976187909883
0.044061740744606274
0.044441583211356515
0.044488889371639535
0.04444158321135749
0.05005652301323859
0.05010199104068764
0.05005652301324368
0.049685133263001426
0.04973123355344756
0.049685133263004645
0.0500565230137203
0.05010199104116724
0.05005652301372153
0.055942853236651734
0.05598646979251275
0.055942853236656986
0.05557998251805074
0.0556241619632688
0.05557998251805418
0.05594285323716045
0.05598646979301948
0.05594285323716197
0.062089280962066506
0.06213103576782883
0.06208928096207194
0.061734977812262344
0.06177723641202077
0.061734977812265994
0.06208928096260185
0.062131035768362194
0.06208928096260366
0.0684845093335613
0.06852439436673209
0.06848450933356687
0.06813880844818265
0.06817914620247222
0.06813880844818646
0.06848450933412253
0.06852439436729141
0.06848450933412462
0.07511723863456968
0.07515524756167416
0.07511723863457542
0.07478016372842436
0.07481858063726071
0.07478016372842844
0.07511723863515635
0.07515524756225894
0.07511723863515866
0.08197616703574609
0.08201229480540054
0.08197616703575189
0.08164773295562965
0.0816842290190211
0.0816477329556339
0.08197616703635743
0.08201229480601017
0.08197616703636003
0.08904999112507545
0.0890842336712505
0.08904999112508136
0.08873020543244882
0.08876478065039826
0.08873020543245318
0.089049991125711
0.08908423367188437
0.0890499911257138
0.09632740629044884
0.09635976031295773
0.09632740629045494
0.09601627046153353
0.09604892483404265
0.09601627046153809
0.09632740629110795
0.09635976031361515
0.09632740629111096
0.10379710700034875
0.1038275698003388
0.10379710700035509
0.1034946173455359
0.10352535087260889
0.10349461734554068
0.10379710700103076
0.10382756980101898
0.10379710700103399
0.11144778701294072
0.11147635636813634
0.11144778701294718
0.11115393538711041
0.11118274806875866
0.11115393538711549
0.11144778701364459
0.11147635636883872
0.11144778701364814
0.11926813953408355
0.11929481360313979
0.11926813953409009
0.11898291388892451
0.11900980572516605
0.11898291388892972
0.11926813953477884
0.11929481360383355
0.11926813953478266
0.12724685733830984
0.12727163458671584
0.12724685733831664
0.12697024215368669
0.12699521314448706
0.12697024215369218
0.127246857338968
0.1272716345873726
0.1272468573389721
0.13537263286271706
0.13539551200471336
0.13537263286272389
0.135104609484188
0.13512765962916173
0.13510460948419353
0.13537263286333523
0.13539551200532993
0.13537263286333948
0.14363415828066467
0.14365513823289805
0.14363415828067175
0.14337470518320056
0.14339583448056945
0.14337470518320639
0.1436341582812403
0.14365513823347237
0.14363415828124484
0.15202012555974453
0.15203920540310048
0.1520201255597517
0.15176921855251074
0.1517884269970109
0.1517692185525168
0.15202012556027508
0.15203920540362972
0.15202012556027994
0.16051922650634137
0.16053640545567507
0.16051922650634873
0.16027683888836786
0.16029412647050953
0.16027683888837407
0.16051922650682485
0.16053640545615727
0.16051922650682998
0.16912015279503045
0.16913543018728588
0.1691201527950378
0.16888625546827926
0.1689016222018178
0.16888625546828565
0.16912015279546497
0.16913543018771962
0.16912015279547046
0.17781159599134758
0.17782497137657396
0.17781159599135504
0.17758615751298287
0.1775996035754463
0.1775861575129893
0.1778115959917318
0.17782497137695713
0.1778115959917372
0.18658224756726235
0.1865937211098319
0.1865822475672698
0.18636523416401818
0.18637676056780106
0.18636523416402487
0.18658224756759442
0.186593721110163
0.1865822475676
0.19542079933775405
0.1954303736473676
0.1954207993377613
0.19521217449838152
0.19522178478756555
0.19521217449838807
0.19542079933803244
0.19543037364764498
0.1954207993380382
0.2043159439528371
0.2043236278699697
0.20431594395284447
0.2041156719837463
0.20412337874707315
0.2041156719837528
0.204315943953061
0.20432362787019287
0.20431594395306668
0.21325638670198072
0.2132622103486987
0.21325638670198838
0.21306444698903867
0.2130702847687501
0.21306444698904545
0.2132563867021493