# vtk DataFile Version 2.0
mesh vtk view
ASCII
DATASET UNSTRUCTURED_GRID
POINTS 1025 double
0.0 0.0 0.0
795.3325895496241 -62.4192475671884 -0.0014793982396252444
804.6674104503859 17.580752432811565 0.001479398379315559
0.0 80.0 0.0
0.0 0.0 80.0
795.3325895496141 -62.419247567192116 80.00147939837572
804.6674104503761 17.58075243280784 79.99852060176401
0.0 80.0 80.0
19.78531813861242 -0.08343432544875615 -0.12295722494445445
39.5709024382099 -0.2302548882818363 -0.14242789768224642
59.357132409791284 -0.5034409693801409 -0.14676542850206947
79.1444633761257 -0.8877809719301255 -0.14373208316916916
98.93621308095678 -1.3789833725099574 -0.1396242873830131
118.73337900509702 -1.9731416887162878 -0.13549446829857337
138.53634230278394 -2.667272577532515 -0.13145396351939714
158.34518177778827 -3.4584332606417827 -0.12745584155055686
178.1599083104802 -4.343694372067073 -0.12347056481769629
197.9805194087121 -5.3201185850397374 -0.119487813141682
217.80701308259677 -6.384766154412398 -0.11550516817516895
237.63938854415346 -7.534696427799271 -0.11152235396625661
257.4776455904251 -8.766968609934864 -0.10753944785873562
277.3217841902019 -10.078641898644678 -0.10355651174137609
297.1718043462441 -11.466775504168496 -0.09957356903493576
317.0277060626028 -12.928428642796707 -0.09559062574071994
336.889489341017 -14.460660532807529 -0.0916076827363889
356.75715418197785 -16.06053039289582 -0.08762473992461615
376.6307005855728 -17.725097441790382 -0.08364179718130076
396.5101285518019 -19.451420898199267 -0.07965885445444275
416.3954380806573 -21.23655998081761 -0.07567591172952345
436.28662917213506 -23.077573908336063 -0.07169296900387527
456.1837018262335 -24.97152189944421 -0.06771002627727692
476.0866560429509 -26.91546317283133 -0.06372708355017788
495.9954918222819 -28.90645694718497 -0.05974414082712372
515.9102091642925 -30.941562441193796 -0.055761198130629894
535.8308080689823 -33.01783887352051 -0.05177825553493
555.7572885364385 -35.132345462800885 -0.04779531319731171
575.6896505674204 -37.28214142774973 -0.04381237114596331
595.6278941643692 -39.46428598777356 -0.0398294277557076
615.5720193322987 -41.67583836497303 -0.03584647364443891
635.5220260704241 -43.913857790180614 -0.03186347546662638
655.4779143213045 -46.17540350363274 -0.027880353188660195
675.4396837609293 -48.45753473367978 -0.023897057335389618
695.4073333413716 -50.75731016120227 -0.019914210734088205
715.3808599604437 -53.071785928653796 -0.015937070602994943
735.3602572825733 -55.397999179753235 -0.011987575315076417
755.3454857229797 -57.732954587686464 -0.008166547052092112
775.3363814370394 -60.07363593451027 -0.004476709469388361
797.6707875277389 -42.41708561678986 -2.7768876760346527e-05
799.999999999998 -22.41549506012069 6.987156632401428e-11
802.3292124722633 -2.4170856167831545 2.7769016473283493e-05
784.6636185630033 19.92636406546027 0.004476709604124195
764.6545142770962 22.267045412254774 0.008166547181823936
744.6397427175356 24.602000820158906 0.011987575439823072
724.6191400396984 26.92821407122957 0.015937070722740084
704.5926666588039 29.24268983865265 0.01991421084878686
684.5603162392797 31.542465266147317 0.023897057445111357
664.5220856789381 33.824596496167295 0.027880353293450125
644.4779739298523 36.086142209593014 0.03186347556641435
624.4279806680116 38.3241616347752 0.03584647373933311
604.3721058359752 40.53571401195017 0.03982942784567511
584.3103494329582 42.717858571950636 0.04381237123105794
564.2427114639742 44.867654536877346 0.047795313277571194
544.169191931465 46.982161126136845 0.05177825561039557
524.0897908361894 49.058437558444254 0.05576119820140443
504.0045081782341 51.093543052448624 0.059744140893286016
483.91334395759856 53.084536826813746 0.06372708361182117
463.8162981743494 55.02847810021276 0.06771002633451362
443.71337082848135 56.92242609133318 0.07169296905680217
423.60456191999225 58.763440018864216 0.07567591177824332
403.489871448881 60.54857910149545 0.07965885449907123
383.36929941514336 62.27490255791757 0.08364179722197378
363.24284581877174 63.939469606825696 0.08762473996147042
343.11051065976574 65.53933946692781 0.09160768276955034
322.97229393821306 67.07157135695275 0.09559062577034787
302.8281956546049 68.53322449559533 0.09957356906117654
282.678215810604 69.92135810113886 0.10355651176439575
262.52235441027074 71.23303138987227 0.10753944787872755
242.3606114564782 72.46530357203328 0.1115223539834121
222.19298691799506 73.61523384544552 0.11550516818968978
202.01948059183962 74.67988141484183 0.11948781315376533
181.84009169003124 75.6563056278363 0.12347056482753309
161.65481822268254 76.54156673928146 0.12745584155835937
141.46365769764625 77.33272742240858 0.13145396352538563
121.26662099529246 78.02685831124049 0.13549446830296966
101.06378691938893 78.62101662746016 0.1396242873860542
80.85553662414654 79.11221902805036 0.14373208317111172
60.64286759040449 79.49655903060857 0.14676542850323787
40.429097561918084 79.76974511171306 0.14242789768301745
20.21468186145412 79.91656567454989 0.1229572249452496
0.0 60.0 0.0
0.0 40.0 0.0
0.0 20.0 0.0
19.785318138611913 -0.08343432544913958 80.12295722494456
39.57090243820888 -0.23025488828237478 80.1424278976826
59.35713240978976 -0.5034409693807956 80.14676542850296
79.14446337612368 -0.8877809719308771 80.14373208317086
98.93621308095427 -1.378983372510804 80.13962428738577
118.73337900509404 -1.973141688717228 80.13549446830262
138.5363423027805 -2.667272577533553 80.13145396352498
158.34518177778438 -3.45843326064292 80.12745584155789
178.15990831047588 -4.343694372068303 80.123470564827
197.98051940870738 -5.3201185850410555 80.11948781315319
217.80701308259162 -6.384766154413816 80.11550516818906
237.63938854414795 -7.534696427800773 80.11152235398272
257.4776455904192 -8.766968609936459 80.10753944787798
277.32178419019573 -10.078641898646358 80.10355651176357
297.17180434623754 -11.466775504170275 80.09957356906025
317.02770606259594 -12.928428642798577 80.09559062576932
336.88948934100983 -14.460660532809529 80.09160768276843
356.7571541819704 -16.060530392897903 80.08762473996023
376.6307005855651 -17.725097441792567 80.08364179722065
396.51012855179397 -19.451420898201548 80.07965885449765
416.39543808064906 -21.236559980819948 80.07567591177674
436.2866291721266 -23.07757390833849 80.0716929690552
456.1837018262249 -24.971521899446728 80.06771002633283
476.0866560429421 -26.915463172833952 80.06372708361005
495.9954918222729 -28.90645694718768 80.05974414089138
515.9102091642833 -30.941562441196606 80.05576119819936
535.8308080689729 -33.017838873523445 80.0517782556082
555.7572885364291 -35.132345462803904 80.0477953132752
575.6896505674108 -37.282141427752784 80.04381237122857
595.6278941643595 -39.464285987776734 80.03982942784303
615.5720193322891 -41.6758383649763 80.03584647373654
635.5220260704143 -43.91385779018397 80.03186347556353
655.4779143212947 -46.17540350363611 80.02788035329043
675.4396837609194 -48.45753473368323 80.02389705744199
695.4073333413618 -50.7573101612057 80.0199142108456
715.3808599604338 -53.071785928657185 80.01593707071945
735.3602572825635 -55.39799917975678 80.0119875754364
755.3454857229697 -57.73295458769006 80.00816654717825
775.3363814370294 -60.07363593451394 80.00447670960054
797.670787527729 -42.41708561679356 80.00002776901466
799.9999999999881 -22.415495060124414 80.00000000006986
802.3292124722534 -2.4170856167868777 79.99997223112504
784.6636185629934 19.92636406545656 79.99552329053431
764.6545142770863 22.267045412251107 79.99183345295165
744.6397427175257 24.60200082015529 79.98801242468865
724.6191400396885 26.92821407122608 79.98406292940066
704.5926666587941 29.242689838649234 79.98008578926961
684.5603162392698 31.542465266143914 79.97610294266832
664.5220856789283 33.824596496163934 79.972119646815
644.4779739298426 36.08614220958982 79.96813652453703
624.427980668002 38.324161634772025 79.9641535263592
604.3721058359655 40.53571401194708 79.9601705722479
584.3103494329487 42.717858571947666 79.95618762885762
564.2427114639647 44.86765453687444 79.95220468680623
544.1691919314557 46.98216112613411 79.94822174446854
524.0897908361802 49.05843755844163 79.94423880187277
504.0045081782251 51.093543052446144 79.94025585917619
483.9133439575897 53.08453682681139 79.93627291645304
463.8162981743407 55.02847810021052 79.93228997372583
443.7133708284729 56.92242609133102 79.92830703099911
423.604561919984 58.76344001886216 79.92432408827337
403.48987144887303 60.548579101493516 79.92034114554833
383.36929941513563 62.27490255791575 79.91635820282136
363.24284581876424 63.93946960682399 79.91237526007792
343.1105106597585 65.53933946692624 79.90839231726605
322.9722939382062 67.0715713569513 79.90440937426159
302.8281956545983 68.533224495594 79.90042643096726
282.6782158105978 69.92135810113766 79.8964434882607
262.5223544102648 71.23303138987116 79.89246055214322
242.3606114564727 72.46530357203228 79.88847764603555
222.19298691798994 73.61523384544462 79.88449483182649
202.0194805918349 74.67988141484105 79.88051218685983
181.84009169002692 75.65630562783565 79.87652943518366
161.65481822267864 76.54156673928092 79.87254415845065
141.46365769764282 77.33272742240815 79.86854603648166
121.26662099528947 78.02685831124018 79.86450553170233
101.06378691938642 78.62101662745997 79.86037571261774
80.8555366241445 79.11221902805028 79.85626791683141
60.64286759040297 79.4965590306086 79.85323457149828
40.42909756191707 79.7697451117132 79.85757210231773
20.214681861453613 79.91656567455009 79.87704277505505
0.0 60.0 80.0
0.0 40.0 80.0
0.0 20.0 80.0
0.0 0.0 20.0
0.0 0.0 40.0
0.0 0.0 60.0
795.3308271190893 -62.420688093768845 19.999049697171248
795.3304346487914 -62.421272651429284 40.00000000006803
795.3308271190843 -62.42068809377076 60.00095030296484
804.6691728809158 17.579311906231112 20.000950302968473
804.6695653512087 17.578727348570723 40.000000000071694
804.6691728809109 17.57931190622923 59.99904969717488
0.0 80.0 20.0
0.0 80.0 40.0
0.0 80.0 60.0
[...]
POINT_DATA 1025
SCALARS CellEntityIds float 1
LOOKUP_TABLE default
0.0
0.24074425986738604
0.24074425986738907
0.0
0.0
0.24074425986740317
0.24074425986740053
0.0
0.001004192891813903
0.0019514360400759035
0.0031908514725120895
0.004774124164724091
0.006720027353169445
0.009033120859295677
0.011712733297831525
0.014754113334865699
0.018149960145209282
0.021891421461382028
0.02596873743662169
0.030371607228835657
0.03508939873915365
0.04011127023476055
0.04542624329606068
0.051023247976365156
0.056891151593606346
0.06301877756074192
0.06939491798467823
0.07600834227096114
0.08284780311215043
0.08990204072813242
0.0971597859169771
0.10460976228269571
0.11224068788449405
0.12004127647358906
0.1280002384319222
0.13610628149301462
0.14434811130194042
0.152714431856604
0.16119394586368405
0.16977535504461094
0.1784473603832527
0.1871986623018334
0.19601795890464727
0.20489393887711976
0.2138152187538368
0.22277030038753623
0.2317476403859368
0.2402328076846061
0.24005959638484575
0.2402328076846063
0.23174764038605278
0.22277030038776477
0.21381521875417708
0.2048939388775705
0.1960179589052072
0.1871986623025002
0.17844736038402348
0.16977535504548305
0.1611939458646537
0.1527144318576677
0.1443481113030938
0.136106281494253
0.12800023843324063
0.12004127647498156
0.11224068788590369
0.1046097622840614
0.09715978591829728
0.08990204072940562
0.08284780311337543
0.0760083422721368
0.06939491798580319
0.06301877756181495
0.05689115159462647
0.051023247977331224
0.04542624329697172
0.04011127023559618
0.03508939873989906
0.030371607229483844
0.02596873743717294
0.021891421461842926
0.018149960145586903
0.014754113335167525
0.011712733298065398
0.009033120859469897
0.0067200273532929235
0.004774124164808187
0.0031908514725647024
0.0019514360401042515
0.0010041928918256926
0.0
0.0
0.0
0.001004192891816179
0.0019514360400805235
0.0031908514725187513
0.0047741241647322715
0.006720027353178736
0.009033120859305802
0.011712733297842311
0.01475411333487703
0.01814996014522104
0.02189142146139414
0.02596873743663416
0.03037160722884839
0.03508939873916666
0.040111270234773795
0.0454262432960742
0.051023247976378895
0.056891151593620445
0.06301877756075619
0.06939491798469274
0.07600834227097587
0.08284780311216525
0.08990204072814742
0.0971597859169923
0.10460976228271114
0.11224068788450964
0.12004127647360487
0.1280002384319383
0.13610628149303095
0.14434811130195666
0.15271443185662056
0.1611939458637008
0.16977535504462785
0.17844736038326955
0.18719866230185037
0.19601795890466397
0.20489393887713617
0.21381521875385368
0.22277030038755313
0.2317476403859538
0.2402328076846217
0.24005959638486007
0.24023280768461922
0.23174764038606402
0.2227703003877757
0.21381521875418769
0.20489393887758045
0.19601795890521673
0.18719866230250948
0.17844736038403244
0.16977535504549118
0.16119394586466157
0.15271443185767508
0.14434811130310052
0.13610628149425927
0.1280002384332461
0.12004127647498643
0.11224068788590782
0.10460976228406492
0.09715978591830016
0.08990204072940798
0.08284780311337722
0.07600834227213793
0.06939491798580372
0.06301877756181487
0.056891151594625704
0.05102324797732984
0.045426243296969745
0.040111270235593556
0.03508939873989591
0.030371607229480138
0.025968737437168685
0.02189142146183818
0.018149960145581633
0.014754113335161814
0.011712733298059313
0.009033120859463539
0.006720027353286474
0.004774124164801921
0.00319085147255906
0.0019514360400998993
0.0010041928918233093
0.0
0.0
0.0
0.0
0.0
0.0
0.24075029043204435
0.24075264504170085
0.2407502904320531
0.240750290432046
0.24075264504170088
0.2407502904320518
0.0
0.0
0.0
0.0004661657966493285
6.808433831272397e-06
0.00046616579665365965
0.0011017529047283568
0.0006105713702751013
0.0011017529047410936
0.0021424489746915227
0.0016692950741433352
0.002142448974716591
0.0036179754543687226
0.0031523231060390992
0.0036179754544098048
0.0055063299306217705
0.00504725525407859
0.0055063299306828285
0.0077917928842678895
0.007339360313829196
0.007791792884354567
0.010461600765407666
0.010016356182338289
0.010461600765524406
0.013504293357733496
0.013066628011189862
0.01350429335788442
0.016908626609062866
0.016478830573736794
0.01690862660925187
0.020663372520631766
0.02024165641076346
0.020663372520862613
0.02475727925116046
0.02434380036365136
0.02475727925143664
0.029179076988252842
0.028773953872471725
0.029179076988577697
0.033917484377085826
0.03352080683565313
0.03391748437745941
0.03896121268092137
0.03857304864949431
0.03896121268134015
0.044298968115086754
0.04391936861177873
0.04429896811554329
0.0499194532811404
0.04954845601423955
0.049919453281624476
0.05581136811943776
0.0554490001547051
0.05581136811994883
0.061963410577864426
0.06160969033441279
0.06196341057840205
0.06836427709403675
0.06801921585575012
0.06836427709460025
0.0750026629486703
0.07466626602136356
0.07500266294925924
0.08186726252791161
0.08153953013392516
0.08186726252852518
0.08894676952054495
0.0886276974960974
0.08894676952118268
0.09622987706810258
0.09591945741053418
0.09622987706876376
0.10370527788053452
0.10340349917988298
0.10370527788121853
0.11136166432640544
0.11106851210678119
0.11136166432711139
0.11918772850407025
0.11890318549385703
0.11918772850476748
0.1271721622984645
0.12689620864379403
0.12717216229912448
0.1353036574271692
0.13503627085969797
0.13530365742778902
0.14357090547878382
0.14331206144634237
0.14357090547936102
0.15196259794624467
0.15171226971311944
0.1519625979467767
0.16046742625638558
0.16022558497487946
0.1604674262568704
0.16907408177883607
0.16884069652592332
0.16907408177927213
0.17777125574763175
0.1775462934406367
0.17777125574801705
0.18654763869893118
0.18633106381752612
0.18654763869926438
0.1953919187337899
0.19518369203557243
0.19539191873406925
0.20429277369387047
0.20409285640895727
0.20429277369409538
0.21323886175827303
0.2130472418706493
0.21323886175844223
0.22221877056423409
0.22203568128642856
0.22221877056434752
0.23122117239270437
0.23104689908634124
0.2312211723927616
0.000907138540388485
0.0009223120334594775
0.0009071385403896857
0.001971419598647954
0.001979255009986332
0.001971419598650335
0.003282657875249633
0.0033126709005096167
0.0032826578752529673
0.0049045940231650575
0.004946432813073096
0.00490459402316912
0.006869139591558921
0.00691745923199804
0.006869139591563539
0.009191529245536666
0.009242950258076761
0.00919152924554171
0.011875405149370681
0.011928228091400803
0.011875405149376054
0.014918012099910795
0.014971241935413748
0.014918012099916436
0.01831309997798863
0.018366101176146815
0.018313099977994497
0.02205245624875414
0.022104795537025677
0.02205245624876021
0.026126732667677028
0.026178106041739636
0.02612673266768322
0.030525900995849398
0.030576090692847013
0.03052590099585578
0.03523951302167955
0.03528836029879559
0.03523951302168607
0.04025685343165838
0.040304240594831786
0.04025685343166502
0.045567032396304996
0.045612870784692096
0.04556703239631174
0.05115904321527464
0.05120326504910002
0.05115904321528151
0.05702179914654387
0.05706435190989594
0.05702179914655089
0.06314415750373722
0.06318500000884314
0.06314415750374436
0.06951493577224933
0.06955403535667956
0.06951493577225652
0.07612292260658989
0.0761602531064765
0.07612292260659723
0.08295688547471365
0.08299242573822302
0.082956885474721
0.09000557606276949
0.09003930884547624
0.09000557606277697
0.09725773415683822
0.09728964529091268
0.09725773415684587
0.10470209047163637
0.10473216823394695
0.10470209047164408
0.11232736873990234
0.11235560336639998
0.11232736873991021
0.12012228727535451
0.1201486705842672
0.12012228727536242
0.12807556015574686
0.12810008525257735
0.12807556015575497
0.13617589812868022
0.1361985591732903
0.13617589812868836
0.14441200931279383
0.1444328013338093
0.144412009312802
0.15277259974648033
0.1527915184915005
0.15277259974648866
0.16124637382163068
0.16126341563234187
0.16124637382163903
0.16982203462951231
0.16983719633764552
0.16982203462952056
0.17848828421920723
0.17850156306799617
0.17848828421921573
0.18723382380441692
0.1872452176296525
0.18723382380442516
0.19604735334682863
0.19605686161932012
0.19604735334683687
0.204917570858196
0.20492520016172625
0.20491757085820436
0.21383315239223666
0.2138389276891899
0.21383315239224512
0.22278278890601255
0.22278678990819856
0.22278278890602102
0.2317554065218708
0.23175810263210778
0.23175540652187937
0.2402384126962702
0.2402413339426246
0.24023841269627833
0.24006470886177983
0.24006804123148362
0.24006470886178718
0.24023841269626983
0.24024133394262356
0.24023841269627655
0.23175540652198534
0.23175810263222069
0.23175540652199092
0.22278278890623932
0.22278678990842396
0.22278278890624492
0.21383315239257528
0.2138389276895268
0.21383315239258047
0.20491757085864507
0.20492520016217375
0.20491757085864998
0.1960473533473863
0.19605686161987596
0.19604735334739115
0.1872338238050813
0.18724521763031501
0.18723382380508585
0.17848828421997578
0.17850156306876264
0.17848828421998025
0.16982203463038156
0.16983719633851274
0.16982203463038595
0.16124637382259752
0.16126341563330637
0.16124637382260157
0.15277259974754098
0.15279151849255865
0.1527725997475447
0.14441200931394393
0.14443280133495684
0.14441200931394724
0.1361758981299153
0.13619855917452242
0.13617589812991832
0.12807556015706165
0.12810008525388916
0.12807556015706442
0.12012228727674343
0.12014867058565296
0.12012228727674577
0.11232736874130811
0.11235560336780258
0.11232736874131019
0.1047020904729981
0.10473216823530529
0.10470209047299983
0.09725773415815436
0.09728964529222539
0.09725773415815586
0.09000557606403857
0.09003930884674191
0.09000557606403978
0.08295688547593441
0.0829924257394403
0.08295688547593533
0.07612292260776114
0.07616025310764421
0.0761229226077617
0.06951493577336983
0.06955403535779632
0.06951493577337017
0.0631441575048058
0.06318500000990786
0.06314415750480581
0.05702179914755945
0.057064351910907564
0.057021799147559116
0.05115904321623609
0.05120326505005743
0.051159043216235434
0.04556703239721138
0.04561287078559441
0.04556703239721043
0.04025685343248933
0.04030424059565853
0.04025685343248808
0.035239513022420246
0.03528836029953202
0.03523951302241871
0.03052590099649293
0.030576090693486255
0.030525900996491145
0.026126732668223653
0.026178106042282014
0.026126732668221624
0.0220524562492105
0.022104795537477774
0.022052456249208218
0.018313099978361804
0.018366101176515742
0.018313099978359296
0.014918012100208315
0.014971241935707088
0.014918012100205585
0.011875405149600476
0.011928228091626532
0.011875405149597581
0.00919152924570712
0.009242950258243331
0.009191529245704112
0.006869139591679083
0.0069174592321146295
0.006869139591676059
0.00490459402324659
0.0049464328131515346
0.004904594023243685
0.003282657875300819
0.0033126709005583733
0.0032826578752982428
0.0019714195986760305
0.001979255010012592
0.0019714195986740646
0.0009071385403997302
0.0009223120334696138
0.0009071385403987248
0.0
0.0
0.0
0.0
0.0
0.0
0.0
0.0
0.0
0.0004661657966513645
6.8084338316744435e-06
0.000466165796651392
0.0011017529047325496
0.0006105713702758861
0.0011017529047374986
0.002142448974696875
0.001669295074144522
0.002142448974712871
0.0036179754543747534
0.003152323106040694
0.0036179754544063795
0.005506329930628304
0.005047255254080587
0.005506329930679825
0.007791792884274847
0.007339360313831605
0.00779179288435203
0.01046160076541501
0.010016356182341115
0.010461600765522362
0.013504293357741223
0.0130666280111931
0.01350429335788288
0.016908626609070908
0.016478830573740423
0.016908626609250826
0.020663372520640128
0.020241656410767497
0.020663372520862085
0.024757279251169134
0.0243438003636558
0.0247572792514366
0.029179076988261835
0.02877395387247654
0.02917907698857815
0.03391748437709509
0.03352080683565833
0.03391748437746034
0.03896121268093091
0.03857304864949987
0.03896121268134157
0.04429896811509658
0.04391936861178471
0.04429896811554523
0.04991945328115062
0.049548456014245935
0.04991945328162697
0.05581136811944832
0.05544900015471195
0.05581136811995186
0.06196341057787527
0.06160969033442004
0.06196341057840561
0.06836427709404794
0.06801921585575785
0.06836427709460435
0.07500266294868176
0.0746662660213716
0.07500266294926382
0.08186726252792333
0.08153953013393361
0.08186726252853024
0.08894676952055688
0.0886276974961063
0.08894676952118823
0.0962298770681148
0.09591945741054325
0.09622987706876973
0.10370527788054712
0.10340349917989257
0.10370527788122501
0.11136166432641831
0.11106851210679118
0.11136166432711844
0.11918772850408332
0.11890318549386755
0.11918772850477515
0.127172162298478
0.12689620864380488
0.12717216229913267
0.13530365742718303
0.13503627085970926
0.13530365742779785
0.1435709054787978
0.14331206144635397
0.14357090547937018
0.15196259794625902
0.1517122697131316
0.1519625979467865
0.16046742625640015
0.16022558497489198
0.16046742625688062
0.16907408177885094
0.1688406965259361
0.16907408177928257
0.17777125574764674
0.1775462934406497
0.1777712557480281
0.1865476386989462
0.18633106381753933
0.18654763869927554
0.1953919187338047
0.1951836920355855
0.19539191873408057
0.20429277369388532
0.20409285640897062
0.20429277369410703
0.2132388617582881
0.21304724187066296
0.21323886175845447
0.2222187705642494
0.22203568128644247
0.22221877056436
0.23122117239272005
0.23104689908635528
0.23122117239277418
0.0004119303796504577
0.00041613204741697816
0.00041193037965140593
0.00014730046659775694
0.0001770063136602723
0.00014730046659795022
0.0004119303796543377
0.0004161320474201424
0.0004119303796534981
0.0011879594769108716
0.0012172641248098669
0.0011879594769128464
0.0007955393679379458
0.0008525021826885743
0.000795539367938338
0.0011879594769225654
0.0012172641248201542
0.0011879594769210768
0.0022971854266697943
0.002346639789314114
0.0022971854266723574
0.001871620584534372
0.0019368373910173238
0.001871620584534967
0.0022971854266931025
0.0023466397893355372
0.0022971854266914706
0.0037957806216112103
0.0038542098130837656
0.0037957806216141416
0.003355752004613654
0.0034233827518668535
0.0033557520046144525
0.003795780621650099
0.003854209813120525
0.003795780621648546
0.0056903678557620185
0.005751277369487504
0.005690367855765223
0.0052464881348395775
0.005313458367348703
0.00524648813484058
0.0056903678558206895
0.0057512773695439145
0.005690367855819299
0.007975867791849183
0.008036926415574287
0.007975867791852626
0.007533081126596553
0.007598381029953459
0.00753308112659776
0.007975867791933395
0.008036926415656183
0.007975867791932208
0.01064326674242737
0.010703530387881207
0.010643266742431013
0.010204337874092128
0.010267744903934495
0.010204337874093534
0.010643266742541605
0.01070353038799311
0.010643266742540652
0.013682354640399703
0.013741413869740206
0.013682354640403524
0.013248880766919864
0.013310357176761612
0.013248880766921475
0.013682354640548088
0.013741413869886266
0.013682354640547366
0.017082399902198505
0.017140031769855395
0.017082399902202516
0.016655375457550567
0.016714924616938374
0.01665537545755239
0.017082399902384988
0.017140031770039546
0.017082399902384516
0.02083242776184676
0.020888494310679795
0.020832427761850937
0.020412503221176593
0.020470129174019278
0.020412503221178605
0.02083242776207508
0.020888494310905854
0.020832427762074848
0.02492133313549299
0.024975742443935595
0.02492133313549731
0.024508951854309832
0.02456465640487381
0.024508951854312046
0.02492133313576667
0.02497574244420701
0.024921333135766673
0.029337937076977978
0.02939062590270201
0.029337937076982443
0.028933410551167327
0.02898719418673189
0.02893341055116974
0.0293379370773003
0.029390625903022077
0.029337937077300553
0.03407101655720784
0.034121940354025396
0.034071016557212494
0.033674568701918296
0.0337264315082023
0.03367456870192088
0.03407101655757892
0.03412194035439428
0.0340710165575794
0.03910932122857285
0.039158447959356635
0.03910932122857764
0.038721115659774444
0.03877105763436848
0.03872111565977719
0.0391093212289892
0.03915844795977076
0.039109321228989906
0.044441583210902434
0.04448888937118752
0.04444158321090737
0.044061740744603305
0.04410976187909883
0.044061740744606274
0.044441583211356515
0.044488889371639535
0.04444158321135749
0.05005652301323859
0.05010199104068764
0.05005652301324368
0.049685133263001426
0.04973123355344756
0.049685133263004645
0.0500565230137203
0.05010199104116724
0.05005652301372153
0.055942853236651734
0.05598646979251275
0.055942853236656986
0.05557998251805074
0.0556241619632688
0.05557998251805418
0.05594285323716045
0.05598646979301948
0.05594285323716197
0.062089280962066506
0.06213103576782883
0.06208928096207194
0.061734977812262344
0.06177723641202077
0.061734977812265994
0.06208928096260185
0.062131035768362194
0.06208928096260366
0.0684845093335613
0.06852439436673209
0.06848450933356687
0.06813880844818265
0.06817914620247222
0.06813880844818646
0.06848450933412253
0.06852439436729141
0.06848450933412462
0.07511723863456968
0.07515524756167416
0.07511723863457542
0.07478016372842436
0.07481858063726071
0.07478016372842844
0.07511723863515635
0.07515524756225894
0.07511723863515866
0.08197616703574609
0.08201229480540054
0.08197616703575189
0.08164773295562965
0.0816842290190211
0.0816477329556339
0.08197616703635743
0.08201229480601017
0.08197616703636003
0.08904999112507545
0.0890842336712505
0.08904999112508136
0.08873020543244882
0.08876478065039826
0.08873020543245318
0.089049991125711
0.08908423367188437
0.0890499911257138
0.09632740629044884
0.09635976031295773
0.09632740629045494
0.09601627046153353
0.09604892483404265
0.09601627046153809
0.09632740629110795
0.09635976031361515
0.09632740629111096
0.10379710700034875
0.1038275698003388
0.10379710700035509
0.1034946173455359
0.10352535087260889
0.10349461734554068
0.10379710700103076
0.10382756980101898
0.10379710700103399
0.11144778701294072
0.11147635636813634
0.11144778701294718
0.11115393538711041
0.11118274806875866
0.11115393538711549
0.11144778701364459
0.11147635636883872
0.11144778701364814
0.11926813953408355
0.11929481360313979
0.11926813953409009
0.11898291388892451
0.11900980572516605
0.11898291388892972
0.11926813953477884
0.11929481360383355
0.11926813953478266
0.12724685733830984
0.12727163458671584
0.12724685733831664
0.12697024215368669
0.12699521314448706
0.12697024215369218
0.127246857338968
0.1272716345873726
0.1272468573389721
0.13537263286271706
0.13539551200471336
0.13537263286272389
0.135104609484188
0.13512765962916173
0.13510460948419353
0.13537263286333523
0.13539551200532993
0.13537263286333948
0.14363415828066467
0.14365513823289805
0.14363415828067175
0.14337470518320056
0.14339583448056945
0.14337470518320639
0.1436341582812403
0.14365513823347237
0.14363415828124484
0.15202012555974453
0.15203920540310048
0.1520201255597517
0.15176921855251074
0.1517884269970109
0.1517692185525168
0.15202012556027508
0.15203920540362972
0.15202012556027994
0.16051922650634137
0.16053640545567507
0.16051922650634873
0.16027683888836786
0.16029412647050953
0.16027683888837407
0.16051922650682485
0.16053640545615727
0.16051922650682998
0.16912015279503045
0.16913543018728588
0.1691201527950378
0.16888625546827926
0.1689016222018178
0.16888625546828565
0.16912015279546497
0.16913543018771962
0.16912015279547046
0.17781159599134758
0.17782497137657396
0.17781159599135504
0.17758615751298287
0.1775996035754463
0.1775861575129893
0.1778115959917318
0.17782497137695713
0.1778115959917372
0.18658224756726235
0.1865937211098319
0.1865822475672698
0.18636523416401818
0.18637676056780106
0.18636523416402487
0.18658224756759442
0.186593721110163
0.1865822475676
0.19542079933775405
0.1954303736473676
0.1954207993377613
0.19521217449838152
0.19522178478756555
0.19521217449838807
0.19542079933803244
0.19543037364764498
0.1954207993380382
0.2043159439528371
0.2043236278699697
0.20431594395284447
0.2041156719837463
0.20412337874707315
0.2041156719837528
0.204315943953061
0.20432362787019287
0.20431594395306668
0.21325638670198072
0.2132622103486987
0.21325638670198838
0.21306444698903867
0.2130702847687501
0.21306444698904545
0.2132563867021493