# vtk DataFile Version 2.0
mesh vtk view
ASCII
DATASET UNSTRUCTURED_GRID
POINTS 1025 double
0.0 0.0 0.0
794.1358176392713 -78.4241828408265 -0.0018587311215804367
805.8641823607413 1.5758171591734538 0.0018587312970887804
0.0 80.0 0.0
0.0 0.0 80.0
794.1358176392588 -78.42418284083118 80.00185873129257
805.8641823607289 1.5758171591687784 79.99814126888299
0.0 80.0 80.0
19.73027150750748 -0.10482774223048856 -0.15448471851995568
39.46087742240781 -0.28929460322589706 -0.17894787144692512
59.19229456620933 -0.6325283974263314 -0.18439758965644637
78.92509501110852 -1.1154171185788764 -0.18058646346895624
98.66344720437606 -1.732568852640717 -0.17542538671199095
118.40860439114226 -2.479075455053799 -0.17023663965718205
138.16104545749346 -3.351188623053675 -0.16516010801155037
157.92086941329475 -4.345211019780704 -0.16013682656352024
177.68808992875478 -5.457462159776583 -0.15512968400172109
197.46270387271377 -6.684251555562751 -0.15012571394724158
217.24470874505704 -8.021885681184813 -0.1451218779636739
237.03410355575744 -9.466669870824731 -0.14011782934221995
256.83088804981134 -11.014909279148938 -0.1351136652584115
276.6350621880009 -12.662909052143322 -0.13010946346993416
296.44662597380585 -14.406974351391195 -0.1251052534028681
316.2655794123163 -16.243410346077926 -0.12010104259731488
336.09192250571687 -18.168522207886394 -0.11509683215597587
355.9256552546247 -20.178615109022967 -0.11009262195656909
375.7667776591499 -22.26999422173665 -0.10508841184317282
395.6152897192923 -24.43896471825038 -0.10008420175045378
415.47119143504204 -26.681831770770863 -0.09507999166017056
435.33448280639425 -28.994900551499175 -0.09007578156897156
455.2051638333469 -31.37447623263505 -0.08507157147657875
475.0832345158977 -33.81686398637785 -0.08006736138355688
494.9686948540399 -36.31836898492473 -0.07506315129561703
514.8615448478371 -38.875296400474284 -0.07005894124104786
534.761784497291 -41.48395140519247 -0.06505473131311722
554.6694138025287 -44.14063917121139 -0.06005052170944296
574.5844327645034 -46.841664870762514 -0.055046312465441116
594.5068413862828 -49.583333676946296 -0.05004210153922241
614.4366396741661 -52.3619507662482 -0.045037877143013015
634.3738276271674 -55.173821326124404 -0.04003359738114599
654.3184051731174 -58.0152505558463 -0.03502916169857309
674.2703719049255 -60.88254363975156 -0.030024507934207488
694.229726505966 -63.772005074331105 -0.02502041861462366
714.1964650786183 -66.6799361667702 -0.020023498962737248
734.1705796628045 -69.60261435404898 -0.015061312575352431
754.1520205237997 -72.53627627683689 -0.01026053347570548
774.1405818055391 -75.4771323279745 -0.005624583692308457
797.0735535604924 -58.42146654416243 -3.4889101570691817e-05
799.9999999999974 -38.419468152443784 8.778735256094108e-11
802.9264464395102 -18.421466544155706 3.488927710745877e-05
785.8594181945061 4.522867671988493 0.005624583861591941
765.8479794762787 7.463723723089274 0.010260533638701875
745.8294203373072 10.397385645840629 0.015061312732085408
725.8035349215266 13.320063833083267 0.020023499113186273
705.7702734942125 16.227994925486627 0.025020418758732225
685.7296280952867 19.117456360031206 0.030024508072063007
665.6815948271287 21.98474944390246 0.03502916183023223
645.6261723731127 24.826178673591187 0.04003359750652062
625.5633603261483 27.638049233435474 0.04503787726223907
605.4931586140659 30.41666632270659 0.0500421016522585
585.41556723588 33.158335128861026 0.055046312572354886
565.3305861978893 35.859360828384325 0.060050521810281796
545.2382155031618 38.51604859437703 0.06505473140793294
525.1384551526509 41.12470359907096 0.07005894132996972
505.03130514648257 43.68163101461491 0.07506315137874402
484.9167654846584 46.18313601317623 0.08006736146100613
464.7948361672428 48.62552376693395 0.08507157154849151
444.6655171942291 51.00509944808525 0.09007578163546945
424.52880856561467 53.318168228829386 0.09507999172138268
404.38471028139793 55.56103528136606 0.10008420180652546
384.2332223415737 57.73000577789642 0.10508841189427483
364.0743447461324 59.821384890627144 0.11009262200287318
343.90807749507354 61.83147779178108 0.11509683219764023
323.73442058850736 63.75658965360729 0.1201010426345397
303.55337402705095 65.59302564831208 0.12510525343583728
283.36493781281285 67.33709094758471 0.13010946349885627
263.1691119508921 68.98509072060872 0.13511366528352955
242.9658964448815 70.53333012896488 0.1401178293637743
222.75529125554166 71.97811431863666 0.14512187798191803
202.53729612784437 73.31574844428845 0.15012571396242322
182.31191007176255 74.54253784010201 0.15512968401408014
162.07913058718142 75.65478898012287 0.16013682657332343
141.8389545429415 76.64881137687232 0.16516010801907435
121.59139560925136 77.5209245448919 0.17023663966270558
101.33655279597313 78.26743114732174 0.1754253867158118
81.07490498916655 78.8845828813966 0.1805864634713969
60.80770543398864 79.36747160255948 0.1843975896579144
40.539122577721635 79.71070539676771 0.1789478714478938
20.269728492559768 79.8951722577678 0.15448471852095474
0.0 60.0 0.0
0.0 40.0 0.0
0.0 20.0 0.0
19.730271507506842 -0.10482774223097031 80.1544847185201
39.46087742240653 -0.28929460322657363 80.17894787144736
59.192294566207416 -0.6325283974271538 80.18439758965756
78.925095011106 -1.1154171185798207 80.18058646347109
98.6634472043729 -1.7325688526417806 80.17542538671545
118.40860439113851 -2.4790754550549803 80.17023663966226
138.16104545748914 -3.351188623054979 80.16516010801855
157.92086941328986 -4.345211019782133 80.16013682657274
177.68808992874938 -5.457462159778127 80.15512968401342
197.46270387270783 -6.6842515555644075 80.15012571396169
217.2447087450506 -8.021885681186594 80.14512187798113
237.03410355575053 -9.46666987082662 80.14011782936291
256.83088804980395 -11.014909279150942 80.13511366528259
276.6350621879931 -12.662909052145434 80.13010946349783
296.4466259737976 -14.406974351393433 80.12510525343468
316.2655794123076 -16.243410346080275 80.12010104263325
336.0919225057078 -18.16852220788891 80.11509683219622
355.9256552546153 -20.178615109025586 80.11009262200132
375.7667776591402 -22.269994221739392 80.10508841189261
395.61528971928226 -24.438964718253242 80.10008420180473
415.4711914350317 -26.6818317707738 80.09507999171949
435.3344828063836 -28.994900551502226 80.09007578163346
455.20516383333603 -31.374476232638216 80.08507157154638
475.08323451588655 -33.81686398638114 80.08006736145877
494.96869485402857 -36.318368984928135 80.07506315137636
514.8615448478255 -38.875296400477815 80.07005894132742
534.7617844972793 -41.48395140519615 80.06505473140517
554.6694138025167 -44.14063917121519 80.06005052180731
574.5844327644913 -46.84166487076635 80.05504631256922
594.5068413862707 -49.58333367695028 80.05004210164893
614.436639674154 -52.361950766252306 80.04503787725872
634.3738276271552 -55.17382132612861 80.04003359750288
654.318405173105 -58.01525055585054 80.03502916182644
674.2703719049132 -60.882543639755895 80.03002450806814
694.2297265059536 -63.77200507433541 80.02502041875474
714.1964650786059 -66.67993616677445 80.02002349910904
734.1705796627921 -69.60261435405343 80.01506131272778
754.1520205237873 -72.5362762768414 80.01026053363421
774.1405818055266 -75.4771323279791 80.00562458385708
797.07355356048 -58.42146654416706 80.00003488927484
799.999999999985 -38.41946815244846 80.00000000008777
802.9264464394978 -18.42146654416038 79.99996511090069
785.8594181944939 4.522867671983832 79.99437541631234
765.8479794762663 7.463723723084669 79.98973946652899
745.8294203372948 10.397385645836081 79.98493868742932
725.8035349215143 13.320063833078876 79.97997650104186
705.7702734942001 16.227994925482328 79.97497958139002
685.7296280952743 19.117456360026928 79.96997549207046
665.6815948271163 21.984749443898238 79.96497083830603
645.6261723731004 24.826178673587172 79.95996640262344
625.563360326136 27.638049233431488 79.95496212286156
605.4931586140539 30.41666632270271 79.94995789846531
585.415567235868 33.15833512885729 79.94495368753905
565.3305861978774 35.85936082838068 79.939949478295
545.2382155031501 38.51604859437359 79.93494526869124
525.1384551526394 41.124703599067665 79.92994105876322
505.03130514647125 43.681631014611796 79.92493684870855
484.91676548464727 46.183136013173254 79.91993263862048
464.7948361672319 48.62552376693114 79.91492842852732
444.66551719421847 51.00509944808254 79.90992421843477
424.5288085656043 53.318168228826806 79.90492000834345
404.38471028138787 55.56103528136363 79.89991579825303
384.233222341564 57.730005777894135 79.89491158816017
364.074344746123 59.821384890625 79.88990737804663
343.90807749506456 61.83147779177911 79.88490316784709
323.7344205884987 63.756589653605474 79.8798989574056
303.5533740270427 65.5930256483104 79.87489474659988
283.364937812805 67.3370909475832 79.86989053653268
263.1691119508847 68.98509072060733 79.86488633474404
242.9658964448746 70.53333012896363 79.85988217066006
222.7552912555352 71.97811431863555 79.85487812203841
202.53729612783843 73.31574844428746 79.84987428605466
182.31191007175715 74.54253784010119 79.84487031599998
162.07913058717654 75.65478898012219 79.839863173438
141.8389545429372 76.64881137687178 79.83483989198977
121.59139560924761 77.5209245448915 79.82976336034396
101.33655279597 78.2674311473215 79.82457461328896
81.07490498916403 78.88458288139651 79.81941353653177
60.807705433986726 79.36747160255952 79.81560241034398
40.53912257772036 79.71070539676786 79.82105212855305
20.26972849255913 79.89517225776805 79.84551528147941
0.0 60.0 80.0
0.0 40.0 80.0
0.0 20.0 80.0
0.0 0.0 20.0
0.0 0.0 40.0
0.0 0.0 60.0
794.1336033034712 -78.42599273319681 19.99880602977926
794.1331101997637 -78.42672717743685 40.000000000085464
794.133603303465 -78.42599273319921 60.001193970391725
805.8663966965352 1.574007266803136 20.001193970396287
805.8668898002365 1.573272822563169 40.000000000090076
805.866396696529 1.574007266800777 59.99880602978383
0.0 80.0 20.0
0.0 80.0 40.0
0.0 80.0 60.0
[...]
POINT_DATA 1025
SCALARS CellEntityIds float 1
LOOKUP_TABLE default
0.0
0.24074425986738604
0.24074425986738907
0.0
0.0
0.24074425986740317
0.24074425986740053
0.0
0.001004192891813903
0.0019514360400759035
0.0031908514725120895
0.004774124164724091
0.006720027353169445
0.009033120859295677
0.011712733297831525
0.014754113334865699
0.018149960145209282
0.021891421461382028
0.02596873743662169
0.030371607228835657
0.03508939873915365
0.04011127023476055
0.04542624329606068
0.051023247976365156
0.056891151593606346
0.06301877756074192
0.06939491798467823
0.07600834227096114
0.08284780311215043
0.08990204072813242
0.0971597859169771
0.10460976228269571
0.11224068788449405
0.12004127647358906
0.1280002384319222
0.13610628149301462
0.14434811130194042
0.152714431856604
0.16119394586368405
0.16977535504461094
0.1784473603832527
0.1871986623018334
0.19601795890464727
0.20489393887711976
0.2138152187538368
0.22277030038753623
0.2317476403859368
0.2402328076846061
0.24005959638484575
0.2402328076846063
0.23174764038605278
0.22277030038776477
0.21381521875417708
0.2048939388775705
0.1960179589052072
0.1871986623025002
0.17844736038402348
0.16977535504548305
0.1611939458646537
0.1527144318576677
0.1443481113030938
0.136106281494253
0.12800023843324063
0.12004127647498156
0.11224068788590369
0.1046097622840614
0.09715978591829728
0.08990204072940562
0.08284780311337543
0.0760083422721368
0.06939491798580319
0.06301877756181495
0.05689115159462647
0.051023247977331224
0.04542624329697172
0.04011127023559618
0.03508939873989906
0.030371607229483844
0.02596873743717294
0.021891421461842926
0.018149960145586903
0.014754113335167525
0.011712733298065398
0.009033120859469897
0.0067200273532929235
0.004774124164808187
0.0031908514725647024
0.0019514360401042515
0.0010041928918256926
0.0
0.0
0.0
0.001004192891816179
0.0019514360400805235
0.0031908514725187513
0.0047741241647322715
0.006720027353178736
0.009033120859305802
0.011712733297842311
0.01475411333487703
0.01814996014522104
0.02189142146139414
0.02596873743663416
0.03037160722884839
0.03508939873916666
0.040111270234773795
0.0454262432960742
0.051023247976378895
0.056891151593620445
0.06301877756075619
0.06939491798469274
0.07600834227097587
0.08284780311216525
0.08990204072814742
0.0971597859169923
0.10460976228271114
0.11224068788450964
0.12004127647360487
0.1280002384319383
0.13610628149303095
0.14434811130195666
0.15271443185662056
0.1611939458637008
0.16977535504462785
0.17844736038326955
0.18719866230185037
0.19601795890466397
0.20489393887713617
0.21381521875385368
0.22277030038755313
0.2317476403859538
0.2402328076846217
0.24005959638486007
0.24023280768461922
0.23174764038606402
0.2227703003877757
0.21381521875418769
0.20489393887758045
0.19601795890521673
0.18719866230250948
0.17844736038403244
0.16977535504549118
0.16119394586466157
0.15271443185767508
0.14434811130310052
0.13610628149425927
0.1280002384332461
0.12004127647498643
0.11224068788590782
0.10460976228406492
0.09715978591830016
0.08990204072940798
0.08284780311337722
0.07600834227213793
0.06939491798580372
0.06301877756181487
0.056891151594625704
0.05102324797732984
0.045426243296969745
0.040111270235593556
0.03508939873989591
0.030371607229480138
0.025968737437168685
0.02189142146183818
0.018149960145581633
0.014754113335161814
0.011712733298059313
0.009033120859463539
0.006720027353286474
0.004774124164801921
0.00319085147255906
0.0019514360400998993
0.0010041928918233093
0.0
0.0
0.0
0.0
0.0
0.0
0.24075029043204435
0.24075264504170085
0.2407502904320531
0.240750290432046
0.24075264504170088
0.2407502904320518
0.0
0.0
0.0
0.0004661657966493285
6.808433831272397e-06
0.00046616579665365965
0.0011017529047283568
0.0006105713702751013
0.0011017529047410936
0.0021424489746915227
0.0016692950741433352
0.002142448974716591
0.0036179754543687226
0.0031523231060390992
0.0036179754544098048
0.0055063299306217705
0.00504725525407859
0.0055063299306828285
0.0077917928842678895
0.007339360313829196
0.007791792884354567
0.010461600765407666
0.010016356182338289
0.010461600765524406
0.013504293357733496
0.013066628011189862
0.01350429335788442
0.016908626609062866
0.016478830573736794
0.01690862660925187
0.020663372520631766
0.02024165641076346
0.020663372520862613
0.02475727925116046
0.02434380036365136
0.02475727925143664
0.029179076988252842
0.028773953872471725
0.029179076988577697
0.033917484377085826
0.03352080683565313
0.03391748437745941
0.03896121268092137
0.03857304864949431
0.03896121268134015
0.044298968115086754
0.04391936861177873
0.04429896811554329
0.0499194532811404
0.04954845601423955
0.049919453281624476
0.05581136811943776
0.0554490001547051
0.05581136811994883
0.061963410577864426
0.06160969033441279
0.06196341057840205
0.06836427709403675
0.06801921585575012
0.06836427709460025
0.0750026629486703
0.07466626602136356
0.07500266294925924
0.08186726252791161
0.08153953013392516
0.08186726252852518
0.08894676952054495
0.0886276974960974
0.08894676952118268
0.09622987706810258
0.09591945741053418
0.09622987706876376
0.10370527788053452
0.10340349917988298
0.10370527788121853
0.11136166432640544
0.11106851210678119
0.11136166432711139
0.11918772850407025
0.11890318549385703
0.11918772850476748
0.1271721622984645
0.12689620864379403
0.12717216229912448
0.1353036574271692
0.13503627085969797
0.13530365742778902
0.14357090547878382
0.14331206144634237
0.14357090547936102
0.15196259794624467
0.15171226971311944
0.1519625979467767
0.16046742625638558
0.16022558497487946
0.1604674262568704
0.16907408177883607
0.16884069652592332
0.16907408177927213
0.17777125574763175
0.1775462934406367
0.17777125574801705
0.18654763869893118
0.18633106381752612
0.18654763869926438
0.1953919187337899
0.19518369203557243
0.19539191873406925
0.20429277369387047
0.20409285640895727
0.20429277369409538
0.21323886175827303
0.2130472418706493
0.21323886175844223
0.22221877056423409
0.22203568128642856
0.22221877056434752
0.23122117239270437
0.23104689908634124
0.2312211723927616
0.000907138540388485
0.0009223120334594775
0.0009071385403896857
0.001971419598647954
0.001979255009986332
0.001971419598650335
0.003282657875249633
0.0033126709005096167
0.0032826578752529673
0.0049045940231650575
0.004946432813073096
0.00490459402316912
0.006869139591558921
0.00691745923199804
0.006869139591563539
0.009191529245536666
0.009242950258076761
0.00919152924554171
0.011875405149370681
0.011928228091400803
0.011875405149376054
0.014918012099910795
0.014971241935413748
0.014918012099916436
0.01831309997798863
0.018366101176146815
0.018313099977994497
0.02205245624875414
0.022104795537025677
0.02205245624876021
0.026126732667677028
0.026178106041739636
0.02612673266768322
0.030525900995849398
0.030576090692847013
0.03052590099585578
0.03523951302167955
0.03528836029879559
0.03523951302168607
0.04025685343165838
0.040304240594831786
0.04025685343166502
0.045567032396304996
0.045612870784692096
0.04556703239631174
0.05115904321527464
0.05120326504910002
0.05115904321528151
0.05702179914654387
0.05706435190989594
0.05702179914655089
0.06314415750373722
0.06318500000884314
0.06314415750374436
0.06951493577224933
0.06955403535667956
0.06951493577225652
0.07612292260658989
0.0761602531064765
0.07612292260659723
0.08295688547471365
0.08299242573822302
0.082956885474721
0.09000557606276949
0.09003930884547624
0.09000557606277697
0.09725773415683822
0.09728964529091268
0.09725773415684587
0.10470209047163637
0.10473216823394695
0.10470209047164408
0.11232736873990234
0.11235560336639998
0.11232736873991021
0.12012228727535451
0.1201486705842672
0.12012228727536242
0.12807556015574686
0.12810008525257735
0.12807556015575497
0.13617589812868022
0.1361985591732903
0.13617589812868836
0.14441200931279383
0.1444328013338093
0.144412009312802
0.15277259974648033
0.1527915184915005
0.15277259974648866
0.16124637382163068
0.16126341563234187
0.16124637382163903
0.16982203462951231
0.16983719633764552
0.16982203462952056
0.17848828421920723
0.17850156306799617
0.17848828421921573
0.18723382380441692
0.1872452176296525
0.18723382380442516
0.19604735334682863
0.19605686161932012
0.19604735334683687
0.204917570858196
0.20492520016172625
0.20491757085820436
0.21383315239223666
0.2138389276891899
0.21383315239224512
0.22278278890601255
0.22278678990819856
0.22278278890602102
0.2317554065218708
0.23175810263210778
0.23175540652187937
0.2402384126962702
0.2402413339426246
0.24023841269627833
0.24006470886177983
0.24006804123148362
0.24006470886178718
0.24023841269626983
0.24024133394262356
0.24023841269627655
0.23175540652198534
0.23175810263222069
0.23175540652199092
0.22278278890623932
0.22278678990842396
0.22278278890624492
0.21383315239257528
0.2138389276895268
0.21383315239258047
0.20491757085864507
0.20492520016217375
0.20491757085864998
0.1960473533473863
0.19605686161987596
0.19604735334739115
0.1872338238050813
0.18724521763031501
0.18723382380508585
0.17848828421997578
0.17850156306876264
0.17848828421998025
0.16982203463038156
0.16983719633851274
0.16982203463038595
0.16124637382259752
0.16126341563330637
0.16124637382260157
0.15277259974754098
0.15279151849255865
0.1527725997475447
0.14441200931394393
0.14443280133495684
0.14441200931394724
0.1361758981299153
0.13619855917452242
0.13617589812991832
0.12807556015706165
0.12810008525388916
0.12807556015706442
0.12012228727674343
0.12014867058565296
0.12012228727674577
0.11232736874130811
0.11235560336780258
0.11232736874131019
0.1047020904729981
0.10473216823530529
0.10470209047299983
0.09725773415815436
0.09728964529222539
0.09725773415815586
0.09000557606403857
0.09003930884674191
0.09000557606403978
0.08295688547593441
0.0829924257394403
0.08295688547593533
0.07612292260776114
0.07616025310764421
0.0761229226077617
0.06951493577336983
0.06955403535779632
0.06951493577337017
0.0631441575048058
0.06318500000990786
0.06314415750480581
0.05702179914755945
0.057064351910907564
0.057021799147559116
0.05115904321623609
0.05120326505005743
0.051159043216235434
0.04556703239721138
0.04561287078559441
0.04556703239721043
0.04025685343248933
0.04030424059565853
0.04025685343248808
0.035239513022420246
0.03528836029953202
0.03523951302241871
0.03052590099649293
0.030576090693486255
0.030525900996491145
0.026126732668223653
0.026178106042282014
0.026126732668221624
0.0220524562492105
0.022104795537477774
0.022052456249208218
0.018313099978361804
0.018366101176515742
0.018313099978359296
0.014918012100208315
0.014971241935707088
0.014918012100205585
0.011875405149600476
0.011928228091626532
0.011875405149597581
0.00919152924570712
0.009242950258243331
0.009191529245704112
0.006869139591679083
0.0069174592321146295
0.006869139591676059
0.00490459402324659
0.0049464328131515346
0.004904594023243685
0.003282657875300819
0.0033126709005583733
0.0032826578752982428
0.0019714195986760305
0.001979255010012592
0.0019714195986740646
0.0009071385403997302
0.0009223120334696138
0.0009071385403987248
0.0
0.0
0.0
0.0
0.0
0.0
0.0
0.0
0.0
0.0004661657966513645
6.8084338316744435e-06
0.000466165796651392
0.0011017529047325496
0.0006105713702758861
0.0011017529047374986
0.002142448974696875
0.001669295074144522
0.002142448974712871
0.0036179754543747534
0.003152323106040694
0.0036179754544063795
0.005506329930628304
0.005047255254080587
0.005506329930679825
0.007791792884274847
0.007339360313831605
0.00779179288435203
0.01046160076541501
0.010016356182341115
0.010461600765522362
0.013504293357741223
0.0130666280111931
0.01350429335788288
0.016908626609070908
0.016478830573740423
0.016908626609250826
0.020663372520640128
0.020241656410767497
0.020663372520862085
0.024757279251169134
0.0243438003636558
0.0247572792514366
0.029179076988261835
0.02877395387247654
0.02917907698857815
0.03391748437709509
0.03352080683565833
0.03391748437746034
0.03896121268093091
0.03857304864949987
0.03896121268134157
0.04429896811509658
0.04391936861178471
0.04429896811554523
0.04991945328115062
0.049548456014245935
0.04991945328162697
0.05581136811944832
0.05544900015471195
0.05581136811995186
0.06196341057787527
0.06160969033442004
0.06196341057840561
0.06836427709404794
0.06801921585575785
0.06836427709460435
0.07500266294868176
0.0746662660213716
0.07500266294926382
0.08186726252792333
0.08153953013393361
0.08186726252853024
0.08894676952055688
0.0886276974961063
0.08894676952118823
0.0962298770681148
0.09591945741054325
0.09622987706876973
0.10370527788054712
0.10340349917989257
0.10370527788122501
0.11136166432641831
0.11106851210679118
0.11136166432711844
0.11918772850408332
0.11890318549386755
0.11918772850477515
0.127172162298478
0.12689620864380488
0.12717216229913267
0.13530365742718303
0.13503627085970926
0.13530365742779785
0.1435709054787978
0.14331206144635397
0.14357090547937018
0.15196259794625902
0.1517122697131316
0.1519625979467865
0.16046742625640015
0.16022558497489198
0.16046742625688062
0.16907408177885094
0.1688406965259361
0.16907408177928257
0.17777125574764674
0.1775462934406497
0.1777712557480281
0.1865476386989462
0.18633106381753933
0.18654763869927554
0.1953919187338047
0.1951836920355855
0.19539191873408057
0.20429277369388532
0.20409285640897062
0.20429277369410703
0.2132388617582881
0.21304724187066296
0.21323886175845447
0.2222187705642494
0.22203568128644247
0.22221877056436
0.23122117239272005
0.23104689908635528
0.23122117239277418
0.0004119303796504577
0.00041613204741697816
0.00041193037965140593
0.00014730046659775694
0.0001770063136602723
0.00014730046659795022
0.0004119303796543377
0.0004161320474201424
0.0004119303796534981
0.0011879594769108716
0.0012172641248098669
0.0011879594769128464
0.0007955393679379458
0.0008525021826885743
0.000795539367938338
0.0011879594769225654
0.0012172641248201542
0.0011879594769210768
0.0022971854266697943
0.002346639789314114
0.0022971854266723574
0.001871620584534372
0.0019368373910173238
0.001871620584534967
0.0022971854266931025
0.0023466397893355372
0.0022971854266914706
0.0037957806216112103
0.0038542098130837656
0.0037957806216141416
0.003355752004613654
0.0034233827518668535
0.0033557520046144525
0.003795780621650099
0.003854209813120525
0.003795780621648546
0.0056903678557620185
0.005751277369487504
0.005690367855765223
0.0052464881348395775
0.005313458367348703
0.00524648813484058
0.0056903678558206895
0.0057512773695439145
0.005690367855819299
0.007975867791849183
0.008036926415574287
0.007975867791852626
0.007533081126596553
0.007598381029953459
0.00753308112659776
0.007975867791933395
0.008036926415656183
0.007975867791932208
0.01064326674242737
0.010703530387881207
0.010643266742431013
0.010204337874092128
0.010267744903934495
0.010204337874093534
0.010643266742541605
0.01070353038799311
0.010643266742540652
0.013682354640399703
0.013741413869740206
0.013682354640403524
0.013248880766919864
0.013310357176761612
0.013248880766921475
0.013682354640548088
0.013741413869886266
0.013682354640547366
0.017082399902198505
0.017140031769855395
0.017082399902202516
0.016655375457550567
0.016714924616938374
0.01665537545755239
0.017082399902384988
0.017140031770039546
0.017082399902384516
0.02083242776184676
0.020888494310679795
0.020832427761850937
0.020412503221176593
0.020470129174019278
0.020412503221178605
0.02083242776207508
0.020888494310905854
0.020832427762074848
0.02492133313549299
0.024975742443935595
0.02492133313549731
0.024508951854309832
0.02456465640487381
0.024508951854312046
0.02492133313576667
0.02497574244420701
0.024921333135766673
0.029337937076977978
0.02939062590270201
0.029337937076982443
0.028933410551167327
0.02898719418673189
0.02893341055116974
0.0293379370773003
0.029390625903022077
0.029337937077300553
0.03407101655720784
0.034121940354025396
0.034071016557212494
0.033674568701918296
0.0337264315082023
0.03367456870192088
0.03407101655757892
0.03412194035439428
0.0340710165575794
0.03910932122857285
0.039158447959356635
0.03910932122857764
0.038721115659774444
0.03877105763436848
0.03872111565977719
0.0391093212289892
0.03915844795977076
0.039109321228989906
0.044441583210902434
0.04448888937118752
0.04444158321090737
0.044061740744603305
0.04410976187909883
0.044061740744606274
0.044441583211356515
0.044488889371639535
0.04444158321135749
0.05005652301323859
0.05010199104068764
0.05005652301324368
0.049685133263001426
0.04973123355344756
0.049685133263004645
0.0500565230137203
0.05010199104116724
0.05005652301372153
0.055942853236651734
0.05598646979251275
0.055942853236656986
0.05557998251805074
0.0556241619632688
0.05557998251805418
0.05594285323716045
0.05598646979301948
0.05594285323716197
0.062089280962066506
0.06213103576782883
0.06208928096207194
0.061734977812262344
0.06177723641202077
0.061734977812265994
0.06208928096260185
0.062131035768362194
0.06208928096260366
0.0684845093335613
0.06852439436673209
0.06848450933356687
0.06813880844818265
0.06817914620247222
0.06813880844818646
0.06848450933412253
0.06852439436729141
0.06848450933412462
0.07511723863456968
0.07515524756167416
0.07511723863457542
0.07478016372842436
0.07481858063726071
0.07478016372842844
0.07511723863515635
0.07515524756225894
0.07511723863515866
0.08197616703574609
0.08201229480540054
0.08197616703575189
0.08164773295562965
0.0816842290190211
0.0816477329556339
0.08197616703635743
0.08201229480601017
0.08197616703636003
0.08904999112507545
0.0890842336712505
0.08904999112508136
0.08873020543244882
0.08876478065039826
0.08873020543245318
0.089049991125711
0.08908423367188437
0.0890499911257138
0.09632740629044884
0.09635976031295773
0.09632740629045494
0.09601627046153353
0.09604892483404265
0.09601627046153809
0.09632740629110795
0.09635976031361515
0.09632740629111096
0.10379710700034875
0.1038275698003388
0.10379710700035509
0.1034946173455359
0.10352535087260889
0.10349461734554068
0.10379710700103076
0.10382756980101898
0.10379710700103399
0.11144778701294072
0.11147635636813634
0.11144778701294718
0.11115393538711041
0.11118274806875866
0.11115393538711549
0.11144778701364459
0.11147635636883872
0.11144778701364814
0.11926813953408355
0.11929481360313979
0.11926813953409009
0.11898291388892451
0.11900980572516605
0.11898291388892972
0.11926813953477884
0.11929481360383355
0.11926813953478266
0.12724685733830984
0.12727163458671584
0.12724685733831664
0.12697024215368669
0.12699521314448706
0.12697024215369218
0.127246857338968
0.1272716345873726
0.1272468573389721
0.13537263286271706
0.13539551200471336
0.13537263286272389
0.135104609484188
0.13512765962916173
0.13510460948419353
0.13537263286333523
0.13539551200532993
0.13537263286333948
0.14363415828066467
0.14365513823289805
0.14363415828067175
0.14337470518320056
0.14339583448056945
0.14337470518320639
0.1436341582812403
0.14365513823347237
0.14363415828124484
0.15202012555974453
0.15203920540310048
0.1520201255597517
0.15176921855251074
0.1517884269970109
0.1517692185525168
0.15202012556027508
0.15203920540362972
0.15202012556027994
0.16051922650634137
0.16053640545567507
0.16051922650634873
0.16027683888836786
0.16029412647050953
0.16027683888837407
0.16051922650682485
0.16053640545615727
0.16051922650682998
0.16912015279503045
0.16913543018728588
0.1691201527950378
0.16888625546827926
0.1689016222018178
0.16888625546828565
0.16912015279546497
0.16913543018771962
0.16912015279547046
0.17781159599134758
0.17782497137657396
0.17781159599135504
0.17758615751298287
0.1775996035754463
0.1775861575129893
0.1778115959917318
0.17782497137695713
0.1778115959917372
0.18658224756726235
0.1865937211098319
0.1865822475672698
0.18636523416401818
0.18637676056780106
0.18636523416402487
0.18658224756759442
0.186593721110163
0.1865822475676
0.19542079933775405
0.1954303736473676
0.1954207993377613
0.19521217449838152
0.19522178478756555
0.19521217449838807
0.19542079933803244
0.19543037364764498
0.1954207993380382
0.2043159439528371
0.2043236278699697
0.20431594395284447
0.2041156719837463
0.20412337874707315
0.2041156719837528
0.204315943953061
0.20432362787019287
0.20431594395306668
0.21325638670198072
0.2132622103486987
0.21325638670198838
0.21306444698903867
0.2130702847687501
0.21306444698904545
0.2132563867021493