# vtk DataFile Version 2.0
mesh vtk view
ASCII
DATASET UNSTRUCTURED_GRID
POINTS 1025 double
0.0 0.0 0.0
793.7767860661654 -83.22566342291793 -0.001972530986166994
806.2232139338479 -3.2256634229179895 0.001972531172420747
0.0 80.0 0.0
0.0 0.0 80.0
793.7767860661522 -83.22566342292289 80.00197253116762
806.2232139338348 -3.225663422922949 79.9980274690187
0.0 80.0 80.0
19.713757518175996 -0.11124576726500829 -0.16394296659260607
39.42786991766718 -0.3070065177091153 -0.18990386357632874
59.14284321313474 -0.6712546258401885 -0.19568723800275944
78.85928450160338 -1.1837079625735016 -0.19164277755889236
98.58161744140183 -1.838644496679945 -0.1861657165106843
118.31117200695583 -2.6308555849550523 -0.18065929106476464
138.04845640390633 -3.5563634367100225 -0.17527195135919635
157.7935757039467 -4.611244347522381 -0.16994112206740927
177.54654441423716 -5.791592496089436 -0.16462741975692852
197.30735921191427 -7.093491446719655 -0.15931708418890947
217.0760174437951 -8.513021539216538 -0.1540068909002254
236.85251805923863 -10.04626190373237 -0.14869647195500893
256.6368607876272 -11.68929147991316 -0.14338593047831427
276.4290455873406 -13.438189198192914 -0.13807534898850157
296.22907246207444 -15.289034005558007 -0.1327647587132478
316.0369414172303 -17.23790485706229 -0.12745416765429335
335.8526524551268 -19.280880710410052 -0.12214357698185196
355.6762055764188 -21.41404052386111 -0.11683298656615497
375.507600781223 -23.633463255720528 -0.11152239624173443
395.34683806953944 -25.93522786426571 -0.1062118059392571
415.1939174413575 -28.315413307756838 -0.10090121563936469
435.048838896672 -30.770098544448107 -0.09559062533850045
454.9116024354809 -33.29536253259231 -0.0902800350363693
474.7822080577817 -35.8872842304418 -0.08496944473357058
494.66065576356726 -38.541942596246656 -0.07965885443616502
514.5469455529004 -41.25541658825843 -0.07434826417417324
534.4410774257836 -44.023785164694054 -0.06903767404657339
554.3430513823556 -46.843127283734546 -0.06372708426308234
574.2528674236282 -49.70952190366635 -0.05841649486128446
594.1705255528569 -52.61904798369812 -0.053105903674276846
614.0960257767264 -55.56778448663075 -0.047795298192585246
634.0293680941904 -58.55181038690754 -0.04248463395550187
653.9705524286612 -61.56720467151037 -0.03717380425154696
673.9195783481243 -64.61004631157309 -0.03186274311385285
693.8764444553444 -67.67641354826975 -0.026552280978784298
713.8411466140707 -70.76238123820512 -0.02124942747065994
733.8136763768738 -73.86399890633771 -0.015983433753435236
753.7939809640458 -76.97727278358201 -0.01088872940278949
773.7818419160891 -80.09818124601377 -0.005968945959184486
796.8943833703186 -63.22278082237419 -3.7025169013795396e-05
799.9999999999973 -43.22066008014072 9.316208843201911e-11
803.1056166296843 -23.22278082236747 3.7025355297711356e-05
786.2181580839571 -0.0981812460530449 0.005968946138832265
766.2060190360335 3.022727216339632 0.010888729575765256
746.1863236232386 6.136001093545147 0.01598343391976411
726.1588533860751 9.237618761639368 0.02124942763032013
706.1235555448351 12.323586451536812 0.026552281131715833
686.0804216520887 15.389953688196371 0.0318627432601485
666.0294475715858 18.43279532822301 0.037173804391266864
645.9706319060908 21.448189612790642 0.0424846340885525
625.9039742235892 24.43221551303356 0.047795298319110856
605.8294744474932 27.380952015933516 0.05310590379423352
585.7471325767565 30.29047809593414 0.05841649497474397
565.6569486180638 33.15687271583642 0.06372708437009497
545.5589225746708 35.97621483484909 0.06903767414719415
525.4530544475894 38.74458341125897 0.0743482642685393
505.3393442369571 41.458057403264796 0.07965885452438141
485.2177919427764 44.11271576908497 0.08496944481576162
465.0883975651108 46.70463746695032 0.0902800351126849
444.9511611039534 49.22990145511088 0.09559062540906964
424.8060825593014 51.684586691818936 0.10090121570432449
404.65316193115297 54.06477213532724 0.10621180599876172
384.49239921950283 56.36653674389008 0.11152239629596514
364.3237944243406 58.58595947576758 0.116832986615294
344.1473475456659 60.71911928923707 0.12214357702606721
323.9630585835957 62.762095142603656 0.12745416769379725
303.7709275387848 64.71096599412711 0.13276475874823548
283.5709544134755 66.56181080151848 0.13807534901919444
263.3631392130785 68.31070851982967 0.14338593050497017
243.1474819414025 69.95373809604436 0.14869647197788294
222.92398255680564 71.486978460594 0.15400689091958653
202.69264078864578 72.90650855312242 0.15931708420502058
182.45345558628196 74.20840750378173 0.16462741977004425
162.20642429653108 75.3887556523753 0.16994112207781265
141.9515435965301 76.44363656321144 0.17527195136718096
121.68882799343903 77.36914441498732 0.18065929107062637
101.41838255894841 78.16135550328022 0.1861657165147391
81.14071549867256 78.81629203740047 0.19164277756148246
60.85715678706388 79.32874537414475 0.19568723800431734
40.57213008246271 79.6929934822841 0.18990386357735675
20.28624248189146 79.88875423273318 0.16394296659366628
0.0 60.0 0.0
0.0 40.0 0.0
0.0 20.0 0.0
19.71375751817532 -0.11124576726551953 80.16394296659276
39.42786991766583 -0.3070065177098333 80.18990386357679
59.142843213132714 -0.6712546258410613 80.19568723800394
78.85928450160068 -1.1837079625745037 80.19164277756116
98.58161744139849 -1.8386444966810735 80.18616571651435
118.31117200695185 -2.630855584956306 80.18065929107017
138.04845640390172 -3.556363436711407 80.17527195136664
157.7935757039415 -4.611244347523898 80.16994112207719
177.54654441423142 -5.7915924960910745 80.16462741976935
197.307359211908 -7.093491446721413 80.15931708420425
217.0760174437883 -8.513021539218428 80.15400689091874
236.8525180592313 -10.046261903734372 80.14869647197696
256.6368607876194 -11.689291479915287 80.14338593050397
276.4290455873323 -13.438189198195156 80.1380753490181
296.2290724620657 -15.28903400556038 80.132764758747
316.03694141722116 -17.237904857064784 80.12745416769243
335.8526524551172 -19.28088071041272 80.12214357702456
355.67620557640885 -21.41404052386389 80.11683298661364
375.5076007812127 -23.63346325572344 80.1115223962942
395.34683806952876 -25.93522786426875 80.10621180599686
415.19391744134646 -28.315413307759954 80.10090121570232
435.04883889666075 -30.770098544451347 80.09559062540693
454.9116024354694 -33.29536253259566 80.09028003511044
474.7822080577699 -35.8872842304453 80.0849694448134
494.6606557635552 -38.54194259625027 80.07965885452184
514.5469455528881 -41.25541658826217 80.07434826426582
534.4410774257713 -44.02378516469796 80.06903767414425
554.343051382343 -46.84312728373858 80.06372708436695
574.2528674236155 -49.70952190367042 80.05841649497142
594.170525552844 -52.61904798370235 80.0531059037907
614.0960257767134 -55.56778448663511 80.04779529831538
634.0293680941774 -58.551810386912 80.0424846340847
653.9705524286481 -61.56720467151487 80.03717380438724
673.9195783481113 -64.61004631157769 80.03186274325597
693.8764444553312 -67.67641354827433 80.02655228112746
713.8411466140575 -70.76238123820964 80.02124942762592
733.8136763768606 -73.86399890634243 80.0159834339152
753.7939809640326 -76.97727278358681 80.01088872957101
773.7818419160758 -80.09818124601865 80.00596894613405
796.8943833703053 -63.22278082237911 80.0000370253529
799.9999999999841 -43.22066008014568 80.00000000009314
803.1056166296712 -23.222780822372428 79.99996297483338
786.2181580839439 -0.09818124605799028 79.99403105404575
766.2060190360203 3.0227272163347436 79.9891112706022
746.1863236232255 6.1360010935403295 79.98401656625153
726.1588533860619 9.237618761634707 79.97875057253422
706.1235555448219 12.32358645153225 79.97344771902614
686.0804216520756 15.389953688191838 79.9681372568911
666.0294475715727 18.432795328218525 79.96282619575335
645.9706319060778 21.44818961278638 79.95751536604936
625.9039742235764 24.432215513029327 79.95220470181226
605.8294744474804 27.380952015929395 79.94689409633054
585.7471325767438 30.290478095930176 79.94158350514348
565.6569486180513 33.156872715832556 79.93627291574164
545.5589225746584 35.97621483484544 79.93096232595805
525.4530544475771 38.744583411255476 79.92565173583036
505.33934423694507 41.45805740326149 79.92034114556826
485.21779194276456 44.11271576908182 79.91503055527072
465.0883975650992 46.704637466947325 79.90971996496776
444.9511611039421 49.229901455108 79.90440937466548
424.80608255929036 51.68458669181619 79.89909878436448
404.65316193114234 54.064772135324674 79.89378819406444
384.4923992194925 56.36653674388765 79.88847760376181
364.32379442433063 58.58595947576531 79.88316701343724
344.1473475456563 60.719119289234975 79.8778564230214
323.96305858358653 62.76209514260172 79.87254583234879
303.77092753877605 64.71096599412533 79.86723524128968
283.5709544134672 66.56181080151687 79.86192465101426
263.36313921307067 68.3107085198282 79.85661406952428
243.14748194139517 69.95373809604303 79.85130352804741
222.92398255679882 71.48697846059282 79.84599310910198
202.69264078863947 72.90650855312138 79.8406829158131
182.45345558627622 74.20840750378086 79.83537258024488
162.2064242965259 75.38875565237457 79.8300588779342
141.9515435965255 76.44363656321086 79.82472804864221
121.68882799343507 77.3691444149869 79.81934070893644
101.41838255894505 78.16135550327996 79.81383428349032
81.14071549866988 78.81629203740037 79.80835722244188
60.857156787061854 79.3287453741448 79.80431276199769
40.57213008246135 79.69299348228427 79.81009613642365
20.28624248189078 79.88875423273345 79.83605703340672
0.0 60.0 80.0
0.0 40.0 80.0
0.0 20.0 80.0
0.0 0.0 20.0
0.0 0.0 40.0
0.0 0.0 60.0
793.7744361587858 -83.22758412502519 19.998732929561662
793.7739128650553 -83.22836353523911 40.0000000000907
793.7744361587792 -83.22758412502775 60.00126707061979
806.2255638412211 -3.2275841250252597 20.00126707062463
806.2260871349449 -3.2283635352390974 40.00000000009559
806.2255638412145 -3.227584125027761 59.998732929566515
0.0 80.0 20.0
0.0 80.0 40.0
0.0 80.0 60.0
[...]
POINT_DATA 1025
SCALARS CellEntityIds float 1
LOOKUP_TABLE default
0.0
0.24074425986738604
0.24074425986738907
0.0
0.0
0.24074425986740317
0.24074425986740053
0.0
0.001004192891813903
0.0019514360400759035
0.0031908514725120895
0.004774124164724091
0.006720027353169445
0.009033120859295677
0.011712733297831525
0.014754113334865699
0.018149960145209282
0.021891421461382028
0.02596873743662169
0.030371607228835657
0.03508939873915365
0.04011127023476055
0.04542624329606068
0.051023247976365156
0.056891151593606346
0.06301877756074192
0.06939491798467823
0.07600834227096114
0.08284780311215043
0.08990204072813242
0.0971597859169771
0.10460976228269571
0.11224068788449405
0.12004127647358906
0.1280002384319222
0.13610628149301462
0.14434811130194042
0.152714431856604
0.16119394586368405
0.16977535504461094
0.1784473603832527
0.1871986623018334
0.19601795890464727
0.20489393887711976
0.2138152187538368
0.22277030038753623
0.2317476403859368
0.2402328076846061
0.24005959638484575
0.2402328076846063
0.23174764038605278
0.22277030038776477
0.21381521875417708
0.2048939388775705
0.1960179589052072
0.1871986623025002
0.17844736038402348
0.16977535504548305
0.1611939458646537
0.1527144318576677
0.1443481113030938
0.136106281494253
0.12800023843324063
0.12004127647498156
0.11224068788590369
0.1046097622840614
0.09715978591829728
0.08990204072940562
0.08284780311337543
0.0760083422721368
0.06939491798580319
0.06301877756181495
0.05689115159462647
0.051023247977331224
0.04542624329697172
0.04011127023559618
0.03508939873989906
0.030371607229483844
0.02596873743717294
0.021891421461842926
0.018149960145586903
0.014754113335167525
0.011712733298065398
0.009033120859469897
0.0067200273532929235
0.004774124164808187
0.0031908514725647024
0.0019514360401042515
0.0010041928918256926
0.0
0.0
0.0
0.001004192891816179
0.0019514360400805235
0.0031908514725187513
0.0047741241647322715
0.006720027353178736
0.009033120859305802
0.011712733297842311
0.01475411333487703
0.01814996014522104
0.02189142146139414
0.02596873743663416
0.03037160722884839
0.03508939873916666
0.040111270234773795
0.0454262432960742
0.051023247976378895
0.056891151593620445
0.06301877756075619
0.06939491798469274
0.07600834227097587
0.08284780311216525
0.08990204072814742
0.0971597859169923
0.10460976228271114
0.11224068788450964
0.12004127647360487
0.1280002384319383
0.13610628149303095
0.14434811130195666
0.15271443185662056
0.1611939458637008
0.16977535504462785
0.17844736038326955
0.18719866230185037
0.19601795890466397
0.20489393887713617
0.21381521875385368
0.22277030038755313
0.2317476403859538
0.2402328076846217
0.24005959638486007
0.24023280768461922
0.23174764038606402
0.2227703003877757
0.21381521875418769
0.20489393887758045
0.19601795890521673
0.18719866230250948
0.17844736038403244
0.16977535504549118
0.16119394586466157
0.15271443185767508
0.14434811130310052
0.13610628149425927
0.1280002384332461
0.12004127647498643
0.11224068788590782
0.10460976228406492
0.09715978591830016
0.08990204072940798
0.08284780311337722
0.07600834227213793
0.06939491798580372
0.06301877756181487
0.056891151594625704
0.05102324797732984
0.045426243296969745
0.040111270235593556
0.03508939873989591
0.030371607229480138
0.025968737437168685
0.02189142146183818
0.018149960145581633
0.014754113335161814
0.011712733298059313
0.009033120859463539
0.006720027353286474
0.004774124164801921
0.00319085147255906
0.0019514360400998993
0.0010041928918233093
0.0
0.0
0.0
0.0
0.0
0.0
0.24075029043204435
0.24075264504170085
0.2407502904320531
0.240750290432046
0.24075264504170088
0.2407502904320518
0.0
0.0
0.0
0.0004661657966493285
6.808433831272397e-06
0.00046616579665365965
0.0011017529047283568
0.0006105713702751013
0.0011017529047410936
0.0021424489746915227
0.0016692950741433352
0.002142448974716591
0.0036179754543687226
0.0031523231060390992
0.0036179754544098048
0.0055063299306217705
0.00504725525407859
0.0055063299306828285
0.0077917928842678895
0.007339360313829196
0.007791792884354567
0.010461600765407666
0.010016356182338289
0.010461600765524406
0.013504293357733496
0.013066628011189862
0.01350429335788442
0.016908626609062866
0.016478830573736794
0.01690862660925187
0.020663372520631766
0.02024165641076346
0.020663372520862613
0.02475727925116046
0.02434380036365136
0.02475727925143664
0.029179076988252842
0.028773953872471725
0.029179076988577697
0.033917484377085826
0.03352080683565313
0.03391748437745941
0.03896121268092137
0.03857304864949431
0.03896121268134015
0.044298968115086754
0.04391936861177873
0.04429896811554329
0.0499194532811404
0.04954845601423955
0.049919453281624476
0.05581136811943776
0.0554490001547051
0.05581136811994883
0.061963410577864426
0.06160969033441279
0.06196341057840205
0.06836427709403675
0.06801921585575012
0.06836427709460025
0.0750026629486703
0.07466626602136356
0.07500266294925924
0.08186726252791161
0.08153953013392516
0.08186726252852518
0.08894676952054495
0.0886276974960974
0.08894676952118268
0.09622987706810258
0.09591945741053418
0.09622987706876376
0.10370527788053452
0.10340349917988298
0.10370527788121853
0.11136166432640544
0.11106851210678119
0.11136166432711139
0.11918772850407025
0.11890318549385703
0.11918772850476748
0.1271721622984645
0.12689620864379403
0.12717216229912448
0.1353036574271692
0.13503627085969797
0.13530365742778902
0.14357090547878382
0.14331206144634237
0.14357090547936102
0.15196259794624467
0.15171226971311944
0.1519625979467767
0.16046742625638558
0.16022558497487946
0.1604674262568704
0.16907408177883607
0.16884069652592332
0.16907408177927213
0.17777125574763175
0.1775462934406367
0.17777125574801705
0.18654763869893118
0.18633106381752612
0.18654763869926438
0.1953919187337899
0.19518369203557243
0.19539191873406925
0.20429277369387047
0.20409285640895727
0.20429277369409538
0.21323886175827303
0.2130472418706493
0.21323886175844223
0.22221877056423409
0.22203568128642856
0.22221877056434752
0.23122117239270437
0.23104689908634124
0.2312211723927616
0.000907138540388485
0.0009223120334594775
0.0009071385403896857
0.001971419598647954
0.001979255009986332
0.001971419598650335
0.003282657875249633
0.0033126709005096167
0.0032826578752529673
0.0049045940231650575
0.004946432813073096
0.00490459402316912
0.006869139591558921
0.00691745923199804
0.006869139591563539
0.009191529245536666
0.009242950258076761
0.00919152924554171
0.011875405149370681
0.011928228091400803
0.011875405149376054
0.014918012099910795
0.014971241935413748
0.014918012099916436
0.01831309997798863
0.018366101176146815
0.018313099977994497
0.02205245624875414
0.022104795537025677
0.02205245624876021
0.026126732667677028
0.026178106041739636
0.02612673266768322
0.030525900995849398
0.030576090692847013
0.03052590099585578
0.03523951302167955
0.03528836029879559
0.03523951302168607
0.04025685343165838
0.040304240594831786
0.04025685343166502
0.045567032396304996
0.045612870784692096
0.04556703239631174
0.05115904321527464
0.05120326504910002
0.05115904321528151
0.05702179914654387
0.05706435190989594
0.05702179914655089
0.06314415750373722
0.06318500000884314
0.06314415750374436
0.06951493577224933
0.06955403535667956
0.06951493577225652
0.07612292260658989
0.0761602531064765
0.07612292260659723
0.08295688547471365
0.08299242573822302
0.082956885474721
0.09000557606276949
0.09003930884547624
0.09000557606277697
0.09725773415683822
0.09728964529091268
0.09725773415684587
0.10470209047163637
0.10473216823394695
0.10470209047164408
0.11232736873990234
0.11235560336639998
0.11232736873991021
0.12012228727535451
0.1201486705842672
0.12012228727536242
0.12807556015574686
0.12810008525257735
0.12807556015575497
0.13617589812868022
0.1361985591732903
0.13617589812868836
0.14441200931279383
0.1444328013338093
0.144412009312802
0.15277259974648033
0.1527915184915005
0.15277259974648866
0.16124637382163068
0.16126341563234187
0.16124637382163903
0.16982203462951231
0.16983719633764552
0.16982203462952056
0.17848828421920723
0.17850156306799617
0.17848828421921573
0.18723382380441692
0.1872452176296525
0.18723382380442516
0.19604735334682863
0.19605686161932012
0.19604735334683687
0.204917570858196
0.20492520016172625
0.20491757085820436
0.21383315239223666
0.2138389276891899
0.21383315239224512
0.22278278890601255
0.22278678990819856
0.22278278890602102
0.2317554065218708
0.23175810263210778
0.23175540652187937
0.2402384126962702
0.2402413339426246
0.24023841269627833
0.24006470886177983
0.24006804123148362
0.24006470886178718
0.24023841269626983
0.24024133394262356
0.24023841269627655
0.23175540652198534
0.23175810263222069
0.23175540652199092
0.22278278890623932
0.22278678990842396
0.22278278890624492
0.21383315239257528
0.2138389276895268
0.21383315239258047
0.20491757085864507
0.20492520016217375
0.20491757085864998
0.1960473533473863
0.19605686161987596
0.19604735334739115
0.1872338238050813
0.18724521763031501
0.18723382380508585
0.17848828421997578
0.17850156306876264
0.17848828421998025
0.16982203463038156
0.16983719633851274
0.16982203463038595
0.16124637382259752
0.16126341563330637
0.16124637382260157
0.15277259974754098
0.15279151849255865
0.1527725997475447
0.14441200931394393
0.14443280133495684
0.14441200931394724
0.1361758981299153
0.13619855917452242
0.13617589812991832
0.12807556015706165
0.12810008525388916
0.12807556015706442
0.12012228727674343
0.12014867058565296
0.12012228727674577
0.11232736874130811
0.11235560336780258
0.11232736874131019
0.1047020904729981
0.10473216823530529
0.10470209047299983
0.09725773415815436
0.09728964529222539
0.09725773415815586
0.09000557606403857
0.09003930884674191
0.09000557606403978
0.08295688547593441
0.0829924257394403
0.08295688547593533
0.07612292260776114
0.07616025310764421
0.0761229226077617
0.06951493577336983
0.06955403535779632
0.06951493577337017
0.0631441575048058
0.06318500000990786
0.06314415750480581
0.05702179914755945
0.057064351910907564
0.057021799147559116
0.05115904321623609
0.05120326505005743
0.051159043216235434
0.04556703239721138
0.04561287078559441
0.04556703239721043
0.04025685343248933
0.04030424059565853
0.04025685343248808
0.035239513022420246
0.03528836029953202
0.03523951302241871
0.03052590099649293
0.030576090693486255
0.030525900996491145
0.026126732668223653
0.026178106042282014
0.026126732668221624
0.0220524562492105
0.022104795537477774
0.022052456249208218
0.018313099978361804
0.018366101176515742
0.018313099978359296
0.014918012100208315
0.014971241935707088
0.014918012100205585
0.011875405149600476
0.011928228091626532
0.011875405149597581
0.00919152924570712
0.009242950258243331
0.009191529245704112
0.006869139591679083
0.0069174592321146295
0.006869139591676059
0.00490459402324659
0.0049464328131515346
0.004904594023243685
0.003282657875300819
0.0033126709005583733
0.0032826578752982428
0.0019714195986760305
0.001979255010012592
0.0019714195986740646
0.0009071385403997302
0.0009223120334696138
0.0009071385403987248
0.0
0.0
0.0
0.0
0.0
0.0
0.0
0.0
0.0
0.0004661657966513645
6.8084338316744435e-06
0.000466165796651392
0.0011017529047325496
0.0006105713702758861
0.0011017529047374986
0.002142448974696875
0.001669295074144522
0.002142448974712871
0.0036179754543747534
0.003152323106040694
0.0036179754544063795
0.005506329930628304
0.005047255254080587
0.005506329930679825
0.007791792884274847
0.007339360313831605
0.00779179288435203
0.01046160076541501
0.010016356182341115
0.010461600765522362
0.013504293357741223
0.0130666280111931
0.01350429335788288
0.016908626609070908
0.016478830573740423
0.016908626609250826
0.020663372520640128
0.020241656410767497
0.020663372520862085
0.024757279251169134
0.0243438003636558
0.0247572792514366
0.029179076988261835
0.02877395387247654
0.02917907698857815
0.03391748437709509
0.03352080683565833
0.03391748437746034
0.03896121268093091
0.03857304864949987
0.03896121268134157
0.04429896811509658
0.04391936861178471
0.04429896811554523
0.04991945328115062
0.049548456014245935
0.04991945328162697
0.05581136811944832
0.05544900015471195
0.05581136811995186
0.06196341057787527
0.06160969033442004
0.06196341057840561
0.06836427709404794
0.06801921585575785
0.06836427709460435
0.07500266294868176
0.0746662660213716
0.07500266294926382
0.08186726252792333
0.08153953013393361
0.08186726252853024
0.08894676952055688
0.0886276974961063
0.08894676952118823
0.0962298770681148
0.09591945741054325
0.09622987706876973
0.10370527788054712
0.10340349917989257
0.10370527788122501
0.11136166432641831
0.11106851210679118
0.11136166432711844
0.11918772850408332
0.11890318549386755
0.11918772850477515
0.127172162298478
0.12689620864380488
0.12717216229913267
0.13530365742718303
0.13503627085970926
0.13530365742779785
0.1435709054787978
0.14331206144635397
0.14357090547937018
0.15196259794625902
0.1517122697131316
0.1519625979467865
0.16046742625640015
0.16022558497489198
0.16046742625688062
0.16907408177885094
0.1688406965259361
0.16907408177928257
0.17777125574764674
0.1775462934406497
0.1777712557480281
0.1865476386989462
0.18633106381753933
0.18654763869927554
0.1953919187338047
0.1951836920355855
0.19539191873408057
0.20429277369388532
0.20409285640897062
0.20429277369410703
0.2132388617582881
0.21304724187066296
0.21323886175845447
0.2222187705642494
0.22203568128644247
0.22221877056436
0.23122117239272005
0.23104689908635528
0.23122117239277418
0.0004119303796504577
0.00041613204741697816
0.00041193037965140593
0.00014730046659775694
0.0001770063136602723
0.00014730046659795022
0.0004119303796543377
0.0004161320474201424
0.0004119303796534981
0.0011879594769108716
0.0012172641248098669
0.0011879594769128464
0.0007955393679379458
0.0008525021826885743
0.000795539367938338
0.0011879594769225654
0.0012172641248201542
0.0011879594769210768
0.0022971854266697943
0.002346639789314114
0.0022971854266723574
0.001871620584534372
0.0019368373910173238
0.001871620584534967
0.0022971854266931025
0.0023466397893355372
0.0022971854266914706
0.0037957806216112103
0.0038542098130837656
0.0037957806216141416
0.003355752004613654
0.0034233827518668535
0.0033557520046144525
0.003795780621650099
0.003854209813120525
0.003795780621648546
0.0056903678557620185
0.005751277369487504
0.005690367855765223
0.0052464881348395775
0.005313458367348703
0.00524648813484058
0.0056903678558206895
0.0057512773695439145
0.005690367855819299
0.007975867791849183
0.008036926415574287
0.007975867791852626
0.007533081126596553
0.007598381029953459
0.00753308112659776
0.007975867791933395
0.008036926415656183
0.007975867791932208
0.01064326674242737
0.010703530387881207
0.010643266742431013
0.010204337874092128
0.010267744903934495
0.010204337874093534
0.010643266742541605
0.01070353038799311
0.010643266742540652
0.013682354640399703
0.013741413869740206
0.013682354640403524
0.013248880766919864
0.013310357176761612
0.013248880766921475
0.013682354640548088
0.013741413869886266
0.013682354640547366
0.017082399902198505
0.017140031769855395
0.017082399902202516
0.016655375457550567
0.016714924616938374
0.01665537545755239
0.017082399902384988
0.017140031770039546
0.017082399902384516
0.02083242776184676
0.020888494310679795
0.020832427761850937
0.020412503221176593
0.020470129174019278
0.020412503221178605
0.02083242776207508
0.020888494310905854
0.020832427762074848
0.02492133313549299
0.024975742443935595
0.02492133313549731
0.024508951854309832
0.02456465640487381
0.024508951854312046
0.02492133313576667
0.02497574244420701
0.024921333135766673
0.029337937076977978
0.02939062590270201
0.029337937076982443
0.028933410551167327
0.02898719418673189
0.02893341055116974
0.0293379370773003
0.029390625903022077
0.029337937077300553
0.03407101655720784
0.034121940354025396
0.034071016557212494
0.033674568701918296
0.0337264315082023
0.03367456870192088
0.03407101655757892
0.03412194035439428
0.0340710165575794
0.03910932122857285
0.039158447959356635
0.03910932122857764
0.038721115659774444
0.03877105763436848
0.03872111565977719
0.0391093212289892
0.03915844795977076
0.039109321228989906
0.044441583210902434
0.04448888937118752
0.04444158321090737
0.044061740744603305
0.04410976187909883
0.044061740744606274
0.044441583211356515
0.044488889371639535
0.04444158321135749
0.05005652301323859
0.05010199104068764
0.05005652301324368
0.049685133263001426
0.04973123355344756
0.049685133263004645
0.0500565230137203
0.05010199104116724
0.05005652301372153
0.055942853236651734
0.05598646979251275
0.055942853236656986
0.05557998251805074
0.0556241619632688
0.05557998251805418
0.05594285323716045
0.05598646979301948
0.05594285323716197
0.062089280962066506
0.06213103576782883
0.06208928096207194
0.061734977812262344
0.06177723641202077
0.061734977812265994
0.06208928096260185
0.062131035768362194
0.06208928096260366
0.0684845093335613
0.06852439436673209
0.06848450933356687
0.06813880844818265
0.06817914620247222
0.06813880844818646
0.06848450933412253
0.06852439436729141
0.06848450933412462
0.07511723863456968
0.07515524756167416
0.07511723863457542
0.07478016372842436
0.07481858063726071
0.07478016372842844
0.07511723863515635
0.07515524756225894
0.07511723863515866
0.08197616703574609
0.08201229480540054
0.08197616703575189
0.08164773295562965
0.0816842290190211
0.0816477329556339
0.08197616703635743
0.08201229480601017
0.08197616703636003
0.08904999112507545
0.0890842336712505
0.08904999112508136
0.08873020543244882
0.08876478065039826
0.08873020543245318
0.089049991125711
0.08908423367188437
0.0890499911257138
0.09632740629044884
0.09635976031295773
0.09632740629045494
0.09601627046153353
0.09604892483404265
0.09601627046153809
0.09632740629110795
0.09635976031361515
0.09632740629111096
0.10379710700034875
0.1038275698003388
0.10379710700035509
0.1034946173455359
0.10352535087260889
0.10349461734554068
0.10379710700103076
0.10382756980101898
0.10379710700103399
0.11144778701294072
0.11147635636813634
0.11144778701294718
0.11115393538711041
0.11118274806875866
0.11115393538711549
0.11144778701364459
0.11147635636883872
0.11144778701364814
0.11926813953408355
0.11929481360313979
0.11926813953409009
0.11898291388892451
0.11900980572516605
0.11898291388892972
0.11926813953477884
0.11929481360383355
0.11926813953478266
0.12724685733830984
0.12727163458671584
0.12724685733831664
0.12697024215368669
0.12699521314448706
0.12697024215369218
0.127246857338968
0.1272716345873726
0.1272468573389721
0.13537263286271706
0.13539551200471336
0.13537263286272389
0.135104609484188
0.13512765962916173
0.13510460948419353
0.13537263286333523
0.13539551200532993
0.13537263286333948
0.14363415828066467
0.14365513823289805
0.14363415828067175
0.14337470518320056
0.14339583448056945
0.14337470518320639
0.1436341582812403
0.14365513823347237
0.14363415828124484
0.15202012555974453
0.15203920540310048
0.1520201255597517
0.15176921855251074
0.1517884269970109
0.1517692185525168
0.15202012556027508
0.15203920540362972
0.15202012556027994
0.16051922650634137
0.16053640545567507
0.16051922650634873
0.16027683888836786
0.16029412647050953
0.16027683888837407
0.16051922650682485
0.16053640545615727
0.16051922650682998
0.16912015279503045
0.16913543018728588
0.1691201527950378
0.16888625546827926
0.1689016222018178
0.16888625546828565
0.16912015279546497
0.16913543018771962
0.16912015279547046
0.17781159599134758
0.17782497137657396
0.17781159599135504
0.17758615751298287
0.1775996035754463
0.1775861575129893
0.1778115959917318
0.17782497137695713
0.1778115959917372
0.18658224756726235
0.1865937211098319
0.1865822475672698
0.18636523416401818
0.18637676056780106
0.18636523416402487
0.18658224756759442
0.186593721110163
0.1865822475676
0.19542079933775405
0.1954303736473676
0.1954207993377613
0.19521217449838152
0.19522178478756555
0.19521217449838807
0.19542079933803244
0.19543037364764498
0.1954207993380382
0.2043159439528371
0.2043236278699697
0.20431594395284447
0.2041156719837463
0.20412337874707315
0.2041156719837528
0.204315943953061
0.20432362787019287
0.20431594395306668
0.21325638670198072
0.2132622103486987
0.21325638670198838
0.21306444698903867
0.2130702847687501
0.21306444698904545
0.2132563867021493