# vtk DataFile Version 2.0
mesh vtk view
ASCII
DATASET UNSTRUCTURED_GRID
POINTS 1025 double
0.0 0.0 0.0
794.3751720213419 -75.22319578609888 -0.001782864545189398
805.6248279786703 4.776804213901073 0.0017828647135341362
0.0 80.0 0.0
0.0 0.0 80.0
794.3751720213298 -75.22319578610336 80.0017828647092
805.6248279786583 4.7768042138965825 79.9982171354592
0.0 80.0 80.0
19.741280833728467 -0.10054905887414209 -0.14817921980485543
39.48288242556823 -0.2774866602370849 -0.1716438766939894
59.225262134925714 -0.6067109118170932 -0.176871157425571
78.96896868411196 -1.0698898892491262 -0.1732155874089988
98.7180003796922 -1.661851756614565 -0.16826516684619539
118.47355931393321 -2.3778887017862966 -0.16328820538546032
138.23610482655155 -3.214405413949443 -0.15841887911311972
158.00573188619344 -4.16785546795292 -0.15360062956092757
177.78245360509987 -5.234708602234681 -0.1487978601649161
197.56626697991345 -6.411424961458149 -0.14399813378612966
217.35716961256497 -7.69446177583033 -0.13919853600597293
237.15516055343664 -9.080275182219639 -0.13439873426702725
256.9602395579341 -10.565321145306124 -0.12959882177847634
276.77240658844113 -12.146055621443592 -0.12479887312422254
296.5916616482935 -13.818934581946655 -0.11999891652928163
316.41800474237357 -15.580414005421682 -0.11519895922599589
336.2514358727769 -17.426949872870622 -0.11039900227205848
356.09195504009534 -19.35499816579754 -0.1055990455501785
375.93956224443446 -21.361014865747396 -0.1007990889107984
395.7942574857942 -23.441455954240155 -0.09599913229125158
415.6560407641651 -25.59277741278021 -0.09119917567404114
435.52491207954245 -27.811435222866553 -0.0863992190559523
455.40087143192426 -30.093885365996883 -0.08159926243671839
475.2839188213083 -32.43658382366854 -0.07679930581688109
495.1740542476883 -34.83598657737678 -0.07199934920191836
515.0712777111281 -37.28854960861818 -0.06719939261896427
534.9755892116293 -39.79072889885808 -0.062399436157479775
554.8869887493106 -42.33898042952929 -0.05759948000701671
574.8054763250867 -44.92976018215995 -0.05279952420154556
594.7310519419001 -47.559524139111744 -0.047999566782519446
614.6637156057927 -50.224728285993166 -0.0431995964432982
634.6034673158188 -52.92182861893564 -0.038399572998242065
654.5503070027548 -55.64728114540359 -0.033599399996590514
674.5042342761262 -58.3975418585372 -0.028799017814443915
694.4652478730471 -61.16906609170534 -0.02399917703851657
714.4333440549833 -63.95830611914692 -0.01920621329078879
734.4085151867582 -66.76169131918984 -0.014446565123297228
754.3907135636357 -69.5756119390068 -0.009841736190982806
774.3797417318392 -72.39643304928165 -0.005395008847724438
797.1930003539418 -55.220590358687915 -3.3465056608622757e-05
799.9999999999975 -35.21867353397917 8.420419531355571e-11
802.8069996460608 -15.220590358681193 3.3465224980623716e-05
785.6202582682056 7.603566950682847 0.005395009010098392
765.6092864364422 10.424388060922382 0.009841736347326288
745.5914848133528 13.238308680704279 0.01444656527363294
725.566655945161 16.041693880712522 0.019206213435097035
705.5347521271308 18.83093390811983 0.02399917717674315
685.4957657240852 21.60245814125443 0.028799017946672674
665.4496929974905 24.35271885435543 0.03359940012287581
645.3965326844607 27.078171380791552 0.03839957311849937
625.3362843945209 29.775271713703425 0.04319959655765788
605.2689480584478 32.4404758605553 0.04799956689094182
585.1945236752956 35.07023981747895 0.0527995243040955
565.1130112511063 37.66101957008293 0.05759948010373968
545.0244107888224 40.20927110072899 0.06239943624842546
524.9287222893586 42.711450390945615 0.06719939270425666
504.82594575283287 45.164013422181654 0.07199934928165241
484.71608117924643 47.56341617590373 0.07679930589116914
464.5991285686641 49.906114633589716 0.08159926250569594
444.47508792107953 52.188564776734836 0.086399219119736
424.3439592364902 54.407222586836355 0.09119917573275481
404.20574251489455 56.55854404539193 0.0959991323450346
384.0604377562876 58.638985133900654 0.10079908895981461
363.9080449606603 60.64500183386686 0.10559904559459263
343.748564128012 62.57305012681043 0.11039900231202225
323.5819952584485 64.41958599427639 0.11519895926170133
303.4083383525617 66.18106541776874 0.11999891656090513
283.2275934123711 67.85394437829555 0.12479887315196417
263.03976044276783 69.43467885446144 0.12959882180256915
242.84483944720085 70.91972481757855 0.13439873428770185
222.64283038803234 72.30553822399843 0.1391985360234724
202.43373302064342 73.58857503839911 0.14399813380069165
182.2175463954163 74.76529139764888 0.1487978601767707
161.99426811428165 75.8321445319546 0.15360062957033063
141.76389517388247 76.78559458597957 0.15841887912033661
121.52644068645958 77.62211129816161 0.1632882053907584
101.2819996206563 78.33814824334942 0.1682651668498603
81.03103131616255 78.93011011072736 0.17321558741133986
60.77473786527181 79.3932890881693 0.1768711574269791
40.51711757456093 79.72251333975677 0.17164387669491854
20.258719166338636 79.89945094112421 0.14817921980581372
0.0 60.0 0.0
0.0 40.0 0.0
0.0 20.0 0.0
19.741280833727856 -0.10054905887460416 80.14817921980499
39.482882425567006 -0.2774866602377339 80.1716438766944
59.22526213492389 -0.6067109118178822 80.17687115742665
78.96896868410953 -1.069889889250032 80.17321558741104
98.71800037968917 -1.6618517566155853 80.16826516684951
118.47355931392961 -2.37788870178743 80.16328820539034
138.2361048265474 -3.214405413950694 80.15841887911985
158.00573188618876 -4.167855467954291 80.15360062956977
177.78245360509467 -5.234708602236163 80.14879786017613
197.56626697990774 -6.411424961459737 80.14399813379998
217.3571696125588 -7.694461775832039 80.1391985360227
237.15516055343002 -9.080275182221449 80.13439873428688
256.960239557927 -10.565321145308046 80.12959882180166
276.7724065884336 -12.146055621445619 80.12479887315098
296.5916616482856 -13.8189345819488 80.1199989165598
316.41800474236527 -15.580414005423936 80.11519895926047
336.25143587276824 -17.42694987287303 80.11039900231066
356.09195504008636 -19.354998165800048 80.10559904559311
375.93956224442513 -21.361014865750025 80.10079908895823
395.7942574857846 -23.441455954242905 80.09599913234332
415.65604076415514 -25.59277741278303 80.09119917573094
435.5249120795322 -27.81143522286948 80.08639921911781
455.4008714319138 -30.093885365999917 80.08159926250367
475.2839188212976 -32.436583823671704 80.07679930588903
495.1740542476774 -34.83598657738004 80.07199934927935
515.0712777111171 -37.28854960862157 80.06719939270181
534.9755892116181 -39.79072889886161 80.06239943624577
554.8869887492992 -42.33898042953294 80.05759948010089
574.8054763250752 -44.92976018216363 80.0527995243011
594.7310519418885 -47.559524139115574 80.04799956688775
614.663715605781 -50.2247282859971 80.04319959655429
634.6034673158069 -52.92182861893968 80.03839957311502
654.550307002743 -55.64728114540765 80.03359940011924
674.5042342761144 -58.39754185854136 80.0287990179429
694.4652478730353 -61.16906609170947 80.02399917717291
714.4333440549715 -63.958306119151004 80.01920621343112
734.4085151867463 -66.7616913191941 80.01444656526951
754.3907135636238 -69.57561193901114 80.00984173634302
774.3797417318273 -72.39643304928607 80.00539500900577
797.1930003539298 -55.22059035869236 80.0000334652228
799.9999999999856 -35.21867353398366 80.00000000008419
802.806999646049 -15.220590358685683 79.99996653494556
785.6202582681938 7.6035669506783705 79.99460499115673
765.6092864364304 10.424388060917963 79.99015826381353
745.5914848133409 13.23830868069993 79.9855534348812
725.566655945149 16.041693880708316 79.98079378671363
705.5347521271188 18.83093390811571 79.97600082296593
685.4957657240734 21.602458141250324 79.97120098219003
665.4496929974788 24.352718854351373 79.96640060000783
645.3965326844489 27.0781713807877 79.96160042700616
625.3362843945092 29.775271713699595 79.95680040356109
605.2689480584362 32.44047586055159 79.95200043322183
585.1945236752841 35.07023981747536 79.94720047580277
565.1130112510949 37.66101957007943 79.94240051999725
545.0244107888111 40.209271100725694 79.9376005638467
524.9287222893475 42.71145039094246 79.93280060738513
504.825945752822 45.16401342217866 79.92800065080208
484.71608117923574 47.56341617590088 79.92320069418699
464.59912856865367 49.906114633587016 79.91840073756703
444.4750879210693 52.188564776732235 79.91360078094763
424.34395923648026 54.407222586833875 79.90880082432943
404.2057425148849 56.55854404538961 79.9040008677121
384.0604377562783 58.63898513389846 79.89920091109241
363.90804496065124 60.6450018338648 79.89440095445289
343.74856412800335 62.57305012680854 79.88960099773088
323.5819952584402 64.41958599427464 79.8848010407768
303.4083383525538 66.18106541776713 79.88000108347336
283.2275934123636 67.85394437829409 79.87520112687828
263.0397604427607 69.4346788544601 79.87040117822387
242.8448394471942 70.91972481757736 79.86560126573517
222.64283038802617 72.30553822399736 79.86080146399603
202.4337330206377 73.58857503839818 79.85600186621569
182.2175463954111 74.76529139764808 79.85120213983672
161.99426811427696 75.83214453195393 79.84639937044052
141.76389517387832 76.78559458597906 79.84158112088815
121.52644068645598 77.62211129816124 79.83671179461562
101.28199962065328 78.3381482433492 79.83173483315471
81.03103131616012 78.93011011072726 79.8267844125917
60.77473786526998 79.39328908816934 79.82312884257483
40.517117574559705 79.72251333975693 79.828356123306
20.258719166338025 79.89945094112446 79.85182078019454
0.0 60.0 80.0
0.0 40.0 80.0
0.0 20.0 80.0
0.0 0.0 20.0
0.0 0.0 40.0
0.0 0.0 60.0
794.3730480665948 -75.22493180531121 19.998854763257658
794.3725750895692 -75.22563627223533 40.000000000081975
794.3730480665888 -75.22493180531352 60.001145236906346
805.6269519334113 4.775068194688728 20.001145236910723
805.6274249104309 4.77436372776468 40.000000000086395
805.6269519334054 4.775068194686469 59.99885476326204
0.0 80.0 20.0
0.0 80.0 40.0
0.0 80.0 60.0
[...]
POINT_DATA 1025
SCALARS CellEntityIds float 1
LOOKUP_TABLE default
0.0
0.24074425986738604
0.24074425986738907
0.0
0.0
0.24074425986740317
0.24074425986740053
0.0
0.001004192891813903
0.0019514360400759035
0.0031908514725120895
0.004774124164724091
0.006720027353169445
0.009033120859295677
0.011712733297831525
0.014754113334865699
0.018149960145209282
0.021891421461382028
0.02596873743662169
0.030371607228835657
0.03508939873915365
0.04011127023476055
0.04542624329606068
0.051023247976365156
0.056891151593606346
0.06301877756074192
0.06939491798467823
0.07600834227096114
0.08284780311215043
0.08990204072813242
0.0971597859169771
0.10460976228269571
0.11224068788449405
0.12004127647358906
0.1280002384319222
0.13610628149301462
0.14434811130194042
0.152714431856604
0.16119394586368405
0.16977535504461094
0.1784473603832527
0.1871986623018334
0.19601795890464727
0.20489393887711976
0.2138152187538368
0.22277030038753623
0.2317476403859368
0.2402328076846061
0.24005959638484575
0.2402328076846063
0.23174764038605278
0.22277030038776477
0.21381521875417708
0.2048939388775705
0.1960179589052072
0.1871986623025002
0.17844736038402348
0.16977535504548305
0.1611939458646537
0.1527144318576677
0.1443481113030938
0.136106281494253
0.12800023843324063
0.12004127647498156
0.11224068788590369
0.1046097622840614
0.09715978591829728
0.08990204072940562
0.08284780311337543
0.0760083422721368
0.06939491798580319
0.06301877756181495
0.05689115159462647
0.051023247977331224
0.04542624329697172
0.04011127023559618
0.03508939873989906
0.030371607229483844
0.02596873743717294
0.021891421461842926
0.018149960145586903
0.014754113335167525
0.011712733298065398
0.009033120859469897
0.0067200273532929235
0.004774124164808187
0.0031908514725647024
0.0019514360401042515
0.0010041928918256926
0.0
0.0
0.0
0.001004192891816179
0.0019514360400805235
0.0031908514725187513
0.0047741241647322715
0.006720027353178736
0.009033120859305802
0.011712733297842311
0.01475411333487703
0.01814996014522104
0.02189142146139414
0.02596873743663416
0.03037160722884839
0.03508939873916666
0.040111270234773795
0.0454262432960742
0.051023247976378895
0.056891151593620445
0.06301877756075619
0.06939491798469274
0.07600834227097587
0.08284780311216525
0.08990204072814742
0.0971597859169923
0.10460976228271114
0.11224068788450964
0.12004127647360487
0.1280002384319383
0.13610628149303095
0.14434811130195666
0.15271443185662056
0.1611939458637008
0.16977535504462785
0.17844736038326955
0.18719866230185037
0.19601795890466397
0.20489393887713617
0.21381521875385368
0.22277030038755313
0.2317476403859538
0.2402328076846217
0.24005959638486007
0.24023280768461922
0.23174764038606402
0.2227703003877757
0.21381521875418769
0.20489393887758045
0.19601795890521673
0.18719866230250948
0.17844736038403244
0.16977535504549118
0.16119394586466157
0.15271443185767508
0.14434811130310052
0.13610628149425927
0.1280002384332461
0.12004127647498643
0.11224068788590782
0.10460976228406492
0.09715978591830016
0.08990204072940798
0.08284780311337722
0.07600834227213793
0.06939491798580372
0.06301877756181487
0.056891151594625704
0.05102324797732984
0.045426243296969745
0.040111270235593556
0.03508939873989591
0.030371607229480138
0.025968737437168685
0.02189142146183818
0.018149960145581633
0.014754113335161814
0.011712733298059313
0.009033120859463539
0.006720027353286474
0.004774124164801921
0.00319085147255906
0.0019514360400998993
0.0010041928918233093
0.0
0.0
0.0
0.0
0.0
0.0
0.24075029043204435
0.24075264504170085
0.2407502904320531
0.240750290432046
0.24075264504170088
0.2407502904320518
0.0
0.0
0.0
0.0004661657966493285
6.808433831272397e-06
0.00046616579665365965
0.0011017529047283568
0.0006105713702751013
0.0011017529047410936
0.0021424489746915227
0.0016692950741433352
0.002142448974716591
0.0036179754543687226
0.0031523231060390992
0.0036179754544098048
0.0055063299306217705
0.00504725525407859
0.0055063299306828285
0.0077917928842678895
0.007339360313829196
0.007791792884354567
0.010461600765407666
0.010016356182338289
0.010461600765524406
0.013504293357733496
0.013066628011189862
0.01350429335788442
0.016908626609062866
0.016478830573736794
0.01690862660925187
0.020663372520631766
0.02024165641076346
0.020663372520862613
0.02475727925116046
0.02434380036365136
0.02475727925143664
0.029179076988252842
0.028773953872471725
0.029179076988577697
0.033917484377085826
0.03352080683565313
0.03391748437745941
0.03896121268092137
0.03857304864949431
0.03896121268134015
0.044298968115086754
0.04391936861177873
0.04429896811554329
0.0499194532811404
0.04954845601423955
0.049919453281624476
0.05581136811943776
0.0554490001547051
0.05581136811994883
0.061963410577864426
0.06160969033441279
0.06196341057840205
0.06836427709403675
0.06801921585575012
0.06836427709460025
0.0750026629486703
0.07466626602136356
0.07500266294925924
0.08186726252791161
0.08153953013392516
0.08186726252852518
0.08894676952054495
0.0886276974960974
0.08894676952118268
0.09622987706810258
0.09591945741053418
0.09622987706876376
0.10370527788053452
0.10340349917988298
0.10370527788121853
0.11136166432640544
0.11106851210678119
0.11136166432711139
0.11918772850407025
0.11890318549385703
0.11918772850476748
0.1271721622984645
0.12689620864379403
0.12717216229912448
0.1353036574271692
0.13503627085969797
0.13530365742778902
0.14357090547878382
0.14331206144634237
0.14357090547936102
0.15196259794624467
0.15171226971311944
0.1519625979467767
0.16046742625638558
0.16022558497487946
0.1604674262568704
0.16907408177883607
0.16884069652592332
0.16907408177927213
0.17777125574763175
0.1775462934406367
0.17777125574801705
0.18654763869893118
0.18633106381752612
0.18654763869926438
0.1953919187337899
0.19518369203557243
0.19539191873406925
0.20429277369387047
0.20409285640895727
0.20429277369409538
0.21323886175827303
0.2130472418706493
0.21323886175844223
0.22221877056423409
0.22203568128642856
0.22221877056434752
0.23122117239270437
0.23104689908634124
0.2312211723927616
0.000907138540388485
0.0009223120334594775
0.0009071385403896857
0.001971419598647954
0.001979255009986332
0.001971419598650335
0.003282657875249633
0.0033126709005096167
0.0032826578752529673
0.0049045940231650575
0.004946432813073096
0.00490459402316912
0.006869139591558921
0.00691745923199804
0.006869139591563539
0.009191529245536666
0.009242950258076761
0.00919152924554171
0.011875405149370681
0.011928228091400803
0.011875405149376054
0.014918012099910795
0.014971241935413748
0.014918012099916436
0.01831309997798863
0.018366101176146815
0.018313099977994497
0.02205245624875414
0.022104795537025677
0.02205245624876021
0.026126732667677028
0.026178106041739636
0.02612673266768322
0.030525900995849398
0.030576090692847013
0.03052590099585578
0.03523951302167955
0.03528836029879559
0.03523951302168607
0.04025685343165838
0.040304240594831786
0.04025685343166502
0.045567032396304996
0.045612870784692096
0.04556703239631174
0.05115904321527464
0.05120326504910002
0.05115904321528151
0.05702179914654387
0.05706435190989594
0.05702179914655089
0.06314415750373722
0.06318500000884314
0.06314415750374436
0.06951493577224933
0.06955403535667956
0.06951493577225652
0.07612292260658989
0.0761602531064765
0.07612292260659723
0.08295688547471365
0.08299242573822302
0.082956885474721
0.09000557606276949
0.09003930884547624
0.09000557606277697
0.09725773415683822
0.09728964529091268
0.09725773415684587
0.10470209047163637
0.10473216823394695
0.10470209047164408
0.11232736873990234
0.11235560336639998
0.11232736873991021
0.12012228727535451
0.1201486705842672
0.12012228727536242
0.12807556015574686
0.12810008525257735
0.12807556015575497
0.13617589812868022
0.1361985591732903
0.13617589812868836
0.14441200931279383
0.1444328013338093
0.144412009312802
0.15277259974648033
0.1527915184915005
0.15277259974648866
0.16124637382163068
0.16126341563234187
0.16124637382163903
0.16982203462951231
0.16983719633764552
0.16982203462952056
0.17848828421920723
0.17850156306799617
0.17848828421921573
0.18723382380441692
0.1872452176296525
0.18723382380442516
0.19604735334682863
0.19605686161932012
0.19604735334683687
0.204917570858196
0.20492520016172625
0.20491757085820436
0.21383315239223666
0.2138389276891899
0.21383315239224512
0.22278278890601255
0.22278678990819856
0.22278278890602102
0.2317554065218708
0.23175810263210778
0.23175540652187937
0.2402384126962702
0.2402413339426246
0.24023841269627833
0.24006470886177983
0.24006804123148362
0.24006470886178718
0.24023841269626983
0.24024133394262356
0.24023841269627655
0.23175540652198534
0.23175810263222069
0.23175540652199092
0.22278278890623932
0.22278678990842396
0.22278278890624492
0.21383315239257528
0.2138389276895268
0.21383315239258047
0.20491757085864507
0.20492520016217375
0.20491757085864998
0.1960473533473863
0.19605686161987596
0.19604735334739115
0.1872338238050813
0.18724521763031501
0.18723382380508585
0.17848828421997578
0.17850156306876264
0.17848828421998025
0.16982203463038156
0.16983719633851274
0.16982203463038595
0.16124637382259752
0.16126341563330637
0.16124637382260157
0.15277259974754098
0.15279151849255865
0.1527725997475447
0.14441200931394393
0.14443280133495684
0.14441200931394724
0.1361758981299153
0.13619855917452242
0.13617589812991832
0.12807556015706165
0.12810008525388916
0.12807556015706442
0.12012228727674343
0.12014867058565296
0.12012228727674577
0.11232736874130811
0.11235560336780258
0.11232736874131019
0.1047020904729981
0.10473216823530529
0.10470209047299983
0.09725773415815436
0.09728964529222539
0.09725773415815586
0.09000557606403857
0.09003930884674191
0.09000557606403978
0.08295688547593441
0.0829924257394403
0.08295688547593533
0.07612292260776114
0.07616025310764421
0.0761229226077617
0.06951493577336983
0.06955403535779632
0.06951493577337017
0.0631441575048058
0.06318500000990786
0.06314415750480581
0.05702179914755945
0.057064351910907564
0.057021799147559116
0.05115904321623609
0.05120326505005743
0.051159043216235434
0.04556703239721138
0.04561287078559441
0.04556703239721043
0.04025685343248933
0.04030424059565853
0.04025685343248808
0.035239513022420246
0.03528836029953202
0.03523951302241871
0.03052590099649293
0.030576090693486255
0.030525900996491145
0.026126732668223653
0.026178106042282014
0.026126732668221624
0.0220524562492105
0.022104795537477774
0.022052456249208218
0.018313099978361804
0.018366101176515742
0.018313099978359296
0.014918012100208315
0.014971241935707088
0.014918012100205585
0.011875405149600476
0.011928228091626532
0.011875405149597581
0.00919152924570712
0.009242950258243331
0.009191529245704112
0.006869139591679083
0.0069174592321146295
0.006869139591676059
0.00490459402324659
0.0049464328131515346
0.004904594023243685
0.003282657875300819
0.0033126709005583733
0.0032826578752982428
0.0019714195986760305
0.001979255010012592
0.0019714195986740646
0.0009071385403997302
0.0009223120334696138
0.0009071385403987248
0.0
0.0
0.0
0.0
0.0
0.0
0.0
0.0
0.0
0.0004661657966513645
6.8084338316744435e-06
0.000466165796651392
0.0011017529047325496
0.0006105713702758861
0.0011017529047374986
0.002142448974696875
0.001669295074144522
0.002142448974712871
0.0036179754543747534
0.003152323106040694
0.0036179754544063795
0.005506329930628304
0.005047255254080587
0.005506329930679825
0.007791792884274847
0.007339360313831605
0.00779179288435203
0.01046160076541501
0.010016356182341115
0.010461600765522362
0.013504293357741223
0.0130666280111931
0.01350429335788288
0.016908626609070908
0.016478830573740423
0.016908626609250826
0.020663372520640128
0.020241656410767497
0.020663372520862085
0.024757279251169134
0.0243438003636558
0.0247572792514366
0.029179076988261835
0.02877395387247654
0.02917907698857815
0.03391748437709509
0.03352080683565833
0.03391748437746034
0.03896121268093091
0.03857304864949987
0.03896121268134157
0.04429896811509658
0.04391936861178471
0.04429896811554523
0.04991945328115062
0.049548456014245935
0.04991945328162697
0.05581136811944832
0.05544900015471195
0.05581136811995186
0.06196341057787527
0.06160969033442004
0.06196341057840561
0.06836427709404794
0.06801921585575785
0.06836427709460435
0.07500266294868176
0.0746662660213716
0.07500266294926382
0.08186726252792333
0.08153953013393361
0.08186726252853024
0.08894676952055688
0.0886276974961063
0.08894676952118823
0.0962298770681148
0.09591945741054325
0.09622987706876973
0.10370527788054712
0.10340349917989257
0.10370527788122501
0.11136166432641831
0.11106851210679118
0.11136166432711844
0.11918772850408332
0.11890318549386755
0.11918772850477515
0.127172162298478
0.12689620864380488
0.12717216229913267
0.13530365742718303
0.13503627085970926
0.13530365742779785
0.1435709054787978
0.14331206144635397
0.14357090547937018
0.15196259794625902
0.1517122697131316
0.1519625979467865
0.16046742625640015
0.16022558497489198
0.16046742625688062
0.16907408177885094
0.1688406965259361
0.16907408177928257
0.17777125574764674
0.1775462934406497
0.1777712557480281
0.1865476386989462
0.18633106381753933
0.18654763869927554
0.1953919187338047
0.1951836920355855
0.19539191873408057
0.20429277369388532
0.20409285640897062
0.20429277369410703
0.2132388617582881
0.21304724187066296
0.21323886175845447
0.2222187705642494
0.22203568128644247
0.22221877056436
0.23122117239272005
0.23104689908635528
0.23122117239277418
0.0004119303796504577
0.00041613204741697816
0.00041193037965140593
0.00014730046659775694
0.0001770063136602723
0.00014730046659795022
0.0004119303796543377
0.0004161320474201424
0.0004119303796534981
0.0011879594769108716
0.0012172641248098669
0.0011879594769128464
0.0007955393679379458
0.0008525021826885743
0.000795539367938338
0.0011879594769225654
0.0012172641248201542
0.0011879594769210768
0.0022971854266697943
0.002346639789314114
0.0022971854266723574
0.001871620584534372
0.0019368373910173238
0.001871620584534967
0.0022971854266931025
0.0023466397893355372
0.0022971854266914706
0.0037957806216112103
0.0038542098130837656
0.0037957806216141416
0.003355752004613654
0.0034233827518668535
0.0033557520046144525
0.003795780621650099
0.003854209813120525
0.003795780621648546
0.0056903678557620185
0.005751277369487504
0.005690367855765223
0.0052464881348395775
0.005313458367348703
0.00524648813484058
0.0056903678558206895
0.0057512773695439145
0.005690367855819299
0.007975867791849183
0.008036926415574287
0.007975867791852626
0.007533081126596553
0.007598381029953459
0.00753308112659776
0.007975867791933395
0.008036926415656183
0.007975867791932208
0.01064326674242737
0.010703530387881207
0.010643266742431013
0.010204337874092128
0.010267744903934495
0.010204337874093534
0.010643266742541605
0.01070353038799311
0.010643266742540652
0.013682354640399703
0.013741413869740206
0.013682354640403524
0.013248880766919864
0.013310357176761612
0.013248880766921475
0.013682354640548088
0.013741413869886266
0.013682354640547366
0.017082399902198505
0.017140031769855395
0.017082399902202516
0.016655375457550567
0.016714924616938374
0.01665537545755239
0.017082399902384988
0.017140031770039546
0.017082399902384516
0.02083242776184676
0.020888494310679795
0.020832427761850937
0.020412503221176593
0.020470129174019278
0.020412503221178605
0.02083242776207508
0.020888494310905854
0.020832427762074848
0.02492133313549299
0.024975742443935595
0.02492133313549731
0.024508951854309832
0.02456465640487381
0.024508951854312046
0.02492133313576667
0.02497574244420701
0.024921333135766673
0.029337937076977978
0.02939062590270201
0.029337937076982443
0.028933410551167327
0.02898719418673189
0.02893341055116974
0.0293379370773003
0.029390625903022077
0.029337937077300553
0.03407101655720784
0.034121940354025396
0.034071016557212494
0.033674568701918296
0.0337264315082023
0.03367456870192088
0.03407101655757892
0.03412194035439428
0.0340710165575794
0.03910932122857285
0.039158447959356635
0.03910932122857764
0.038721115659774444
0.03877105763436848
0.03872111565977719
0.0391093212289892
0.03915844795977076
0.039109321228989906
0.044441583210902434
0.04448888937118752
0.04444158321090737
0.044061740744603305
0.04410976187909883
0.044061740744606274
0.044441583211356515
0.044488889371639535
0.04444158321135749
0.05005652301323859
0.05010199104068764
0.05005652301324368
0.049685133263001426
0.04973123355344756
0.049685133263004645
0.0500565230137203
0.05010199104116724
0.05005652301372153
0.055942853236651734
0.05598646979251275
0.055942853236656986
0.05557998251805074
0.0556241619632688
0.05557998251805418
0.05594285323716045
0.05598646979301948
0.05594285323716197
0.062089280962066506
0.06213103576782883
0.06208928096207194
0.061734977812262344
0.06177723641202077
0.061734977812265994
0.06208928096260185
0.062131035768362194
0.06208928096260366
0.0684845093335613
0.06852439436673209
0.06848450933356687
0.06813880844818265
0.06817914620247222
0.06813880844818646
0.06848450933412253
0.06852439436729141
0.06848450933412462
0.07511723863456968
0.07515524756167416
0.07511723863457542
0.07478016372842436
0.07481858063726071
0.07478016372842844
0.07511723863515635
0.07515524756225894
0.07511723863515866
0.08197616703574609
0.08201229480540054
0.08197616703575189
0.08164773295562965
0.0816842290190211
0.0816477329556339
0.08197616703635743
0.08201229480601017
0.08197616703636003
0.08904999112507545
0.0890842336712505
0.08904999112508136
0.08873020543244882
0.08876478065039826
0.08873020543245318
0.089049991125711
0.08908423367188437
0.0890499911257138
0.09632740629044884
0.09635976031295773
0.09632740629045494
0.09601627046153353
0.09604892483404265
0.09601627046153809
0.09632740629110795
0.09635976031361515
0.09632740629111096
0.10379710700034875
0.1038275698003388
0.10379710700035509
0.1034946173455359
0.10352535087260889
0.10349461734554068
0.10379710700103076
0.10382756980101898
0.10379710700103399
0.11144778701294072
0.11147635636813634
0.11144778701294718
0.11115393538711041
0.11118274806875866
0.11115393538711549
0.11144778701364459
0.11147635636883872
0.11144778701364814
0.11926813953408355
0.11929481360313979
0.11926813953409009
0.11898291388892451
0.11900980572516605
0.11898291388892972
0.11926813953477884
0.11929481360383355
0.11926813953478266
0.12724685733830984
0.12727163458671584
0.12724685733831664
0.12697024215368669
0.12699521314448706
0.12697024215369218
0.127246857338968
0.1272716345873726
0.1272468573389721
0.13537263286271706
0.13539551200471336
0.13537263286272389
0.135104609484188
0.13512765962916173
0.13510460948419353
0.13537263286333523
0.13539551200532993
0.13537263286333948
0.14363415828066467
0.14365513823289805
0.14363415828067175
0.14337470518320056
0.14339583448056945
0.14337470518320639
0.1436341582812403
0.14365513823347237
0.14363415828124484
0.15202012555974453
0.15203920540310048
0.1520201255597517
0.15176921855251074
0.1517884269970109
0.1517692185525168
0.15202012556027508
0.15203920540362972
0.15202012556027994
0.16051922650634137
0.16053640545567507
0.16051922650634873
0.16027683888836786
0.16029412647050953
0.16027683888837407
0.16051922650682485
0.16053640545615727
0.16051922650682998
0.16912015279503045
0.16913543018728588
0.1691201527950378
0.16888625546827926
0.1689016222018178
0.16888625546828565
0.16912015279546497
0.16913543018771962
0.16912015279547046
0.17781159599134758
0.17782497137657396
0.17781159599135504
0.17758615751298287
0.1775996035754463
0.1775861575129893
0.1778115959917318
0.17782497137695713
0.1778115959917372
0.18658224756726235
0.1865937211098319
0.1865822475672698
0.18636523416401818
0.18637676056780106
0.18636523416402487
0.18658224756759442
0.186593721110163
0.1865822475676
0.19542079933775405
0.1954303736473676
0.1954207993377613
0.19521217449838152
0.19522178478756555
0.19521217449838807
0.19542079933803244
0.19543037364764498
0.1954207993380382
0.2043159439528371
0.2043236278699697
0.20431594395284447
0.2041156719837463
0.20412337874707315
0.2041156719837528
0.204315943953061
0.20432362787019287
0.20431594395306668
0.21325638670198072
0.2132622103486987
0.21325638670198838
0.21306444698903867
0.2130702847687501
0.21306444698904545
0.2132563867021493