# vtk DataFile Version 2.0
mesh vtk view
ASCII
DATASET UNSTRUCTURED_GRID
POINTS 1025 double
0.0 0.0 0.0
796.0506526958358 -52.81628640300557 -0.00125179851045213
803.9493473041728 27.183713596994394 0.0012517986286516268
0.0 80.0 0.0
0.0 0.0 80.0
796.0506526958274 -52.81628640300872 80.0012517986256
803.9493473041643 27.183713596991247 79.99874820149263
0.0 80.0 80.0
19.818346117275386 -0.07059827537971675 -0.10404072879915377
39.636917447691154 -0.19483105931539993 -0.1205159134234393
59.45603511594045 -0.425988512552427 -0.12418613180944339
79.276084395136 -0.7511992839408754 -0.12161945498929698
99.09987260690522 -1.1668320844315025 -0.11814362778562648
118.92824377346989 -1.669581428913782 -0.11464916548340824
138.76152040995822 -2.2569229502198205 -0.11123027682410529
158.59976919648437 -2.9263666051584316 -0.10784725054277888
178.44299933951544 -3.6754336994413697 -0.10447509330728148
198.29120873031107 -4.501638802725932 -0.10110507265834631
218.1443956851206 -5.402494438348953 -0.09773514230206605
238.00255953719108 -6.375512361983999 -0.09436506874067867
257.8657001147933 -7.418204208406423 -0.09099491741893015
277.7338173915225 -8.528081606545497 -0.08762474070424131
297.606911369707 -9.702656195834882 -0.08425455841417642
317.48498205277474 -10.939439620827983 -0.08088437562676302
337.36802944219716 -12.235943527760217 -0.07751419308463676
357.2560535383897 -13.589679563219542 -0.07414401070544445
377.14905434142656 -14.998159373822633 -0.07077382838417756
397.04703185130774 -16.458894606168613 -0.06740364607683617
416.9499860680265 -17.96939690684567 -0.06403346377113524
436.85791699157954 -19.52717792243821 -0.060663281464817545
456.7708246219655 -21.129749299529717 -0.057293099157695856
476.68870895918286 -22.774622684703434 -0.05392291685015052
496.61157000322714 -24.45930972454113 -0.05055273454602777
516.5394077541657 -26.18132206562552 -0.04718255226437914
536.472222211997 -27.93817135451736 -0.04381237006801769
556.4100133767845 -29.727369237754594 -0.040442188090032985
576.3527812491706 -31.54642736194208 -0.03707200635427665
596.3005258312211 -33.39285737426993 -0.03370182348559874
616.2532471271783 -35.26417092420795 -0.03033163154529446
636.2109451363781 -37.15787966861437 -0.026961402317914628
656.1736198102168 -39.071495272304624 -0.023591068082712476
676.1412708745314 -41.00252939003674 -0.02022058697609891
696.1138974426149 -42.948493213325 -0.016850486005766944
716.0914968895388 -44.90689578578398 -0.013485213587149566
736.0740638544347 -46.875230075175814 -0.010143332958910815
756.0615648424875 -48.85096157419624 -0.006910155197924094
776.0538612159396 -50.83153809843177 -0.0037879849356363057
798.0291279080867 -32.814457060366365 -2.349674187413937e-05
799.9999999999983 -12.813111204726866 5.912209458185824e-11
801.970872091915 7.185542939640342 2.349686009277834e-05
783.9461387841015 29.168461901543303 0.00378798504964355
763.9384351575866 31.149038425754036 0.006910155307697177
743.9259361456726 33.12476992474984 0.010143333064465677
723.9085031106015 35.093104214117325 0.01348521368847238
703.8861025575587 37.051506786552245 0.01685048610281965
683.8587291256755 38.997470609816965 0.02022058706894038
663.8263801900238 40.92850472752617 0.023591068171380875
643.7890548638961 42.84212033119409 0.026961402402350607
623.7467528731297 44.73582907557902 0.030331631625589557
603.6994741691207 46.607142625496294 0.033701823561725096
583.6472187512051 48.453572637804385 0.0370720064262798
563.5899866236251 50.27263076197313 0.040442188157944856
543.5277777884469 52.06182864519271 0.043812370131873175
523.4605922463124 53.81867793406821 0.04718255232426529
503.388429997285 55.54069027514883 0.05055273460201125
483.31129104136267 57.22537731499625 0.05392291690231022
463.2291753786133 58.87025070018002 0.05729309920612691
443.14208300903266 60.47282207728192 0.06066328150960184
423.05001393261887 62.03060309288511 0.06403346381235972
402.95296814937086 63.54110539357307 0.06740364611459873
382.8509456592852 65.00184062593026 0.0707738284185932
362.7439464623553 66.41032043654482 0.07414401073662882
342.63197055858103 67.76405647201584 0.07751419311269643
322.5150179480364 69.06056037896002 0.08088437565183282
302.39308863113723 70.29734380396529 0.08425455843638015
282.2661826092787 71.47191839327135 0.08762474072371948
262.1342998858979 72.58179579143038 0.09099491743584638
241.99744046343622 73.62448763787431 0.09436506875519486
221.8556043154671 74.59750556153082 0.0977351423143529
201.7087912702368 75.49836119717385 0.10110507266857068
181.55700066099246 76.32456630047687 0.10447509331560492
161.40023080398322 77.07363339477664 0.10784725054938102
141.23847959046913 77.74307704973033 0.11123027682917246
121.0717562269171 78.33041857104965 0.11464916548712818
100.9001273934384 78.83316791554321 0.11814362778819971
80.72391560513452 79.24880071604261 0.12161945499094069
60.54396488425401 79.57401148743801 0.12418613181043206
40.36308255243595 79.80516894068029 0.12051591342409168
20.181653882790734 79.92940172461913 0.10404072879982659
0.0 60.0 0.0
0.0 40.0 0.0
0.0 20.0 0.0
19.818346117274956 -0.07059827538004118 80.10404072879925
39.636917447690294 -0.1948310593158556 80.12051591342373
59.456035115939166 -0.4259885125529809 80.12418613181019
79.27608439513429 -0.7511992839415115 80.12161945499074
99.09987260690309 -1.1668320844322189 80.11814362778796
118.92824377346736 -1.6695814289145776 80.11464916548684
138.76152040995532 -2.256922950220699 80.11123027682882
158.59976919648108 -2.926366605159394 80.10784725054899
178.4429993395118 -3.67543369944241 80.10447509331516
198.2912087303071 -4.501638802727047 80.10110507266808
218.14439568511625 -5.4024944383501525 80.09773514231381
238.00255953718641 -6.37551236198527 80.09436506875461
257.86570011478835 -7.418204208407773 80.09099491743521
277.7338173915173 -8.52808160654692 80.08762474072303
297.60691136970144 -9.702656195836388 80.0842545584356
317.48498205276894 -10.939439620829567 80.08088437565097
337.3680294421911 -12.23594352776191 80.07751419311174
357.2560535383834 -13.589679563221303 80.07414401073558
377.14905434142 -14.99815937382448 80.07077382841747
397.04703185130097 -16.458894606170542 80.06740364611339
416.9499860680195 -17.96939690684765 80.06403346381109
436.8579169915724 -19.527177922440263 80.06066328150824
456.7708246219582 -21.12974929953185 80.0572930992047
476.68870895917536 -22.774622684705655 80.0539229169008
496.6115700032195 -24.459309724543424 80.0505527346004
516.539407754158 -26.1813220656279 80.04718255232254
536.4722222119891 -27.938171354519838 80.04381237013001
556.4100133767765 -29.727369237757152 80.04044218815595
576.3527812491625 -31.546427361944662 80.03707200642417
596.3005258312129 -33.39285737427262 80.03370182355948
616.2532471271701 -35.26417092421072 80.03033163162323
636.2109451363698 -37.157879668617205 80.0269614023999
656.1736198102085 -39.07149527230748 80.02359106816883
676.1412708745231 -41.002529390039655 80.02022058706629
696.1138974426066 -42.9484932133279 80.01685048610013
716.0914968895305 -44.90689578578685 80.01348521368568
736.0740638544263 -46.87523007517881 80.01014333306156
756.0615648424792 -48.85096157419928 80.00691015530468
776.0538612159312 -50.831538098434876 80.0037879850466
798.0291279080784 -32.81445706036949 80.00002349685856
799.9999999999899 -12.81311120473002 80.0000000000591
801.9708720919067 7.185542939637195 79.99997650325965
783.9461387840933 29.168461901540162 79.99621201506748
763.9384351575783 31.14903842575093 79.99308984480524
743.9259361456642 33.12476992474678 79.98985666704424
723.9085031105932 35.09310421411437 79.98651478641595
703.8861025575504 37.051506786549346 79.98314951399736
683.8587291256672 38.99747060981408 79.97977941302705
663.8263801900155 40.928504727523325 79.97640893192039
643.7890548638878 42.84212033119138 79.97303859768517
623.7467528731215 44.735829075576326 79.96966836845777
603.6994741691126 46.60714262549368 79.96629817651745
583.647218751197 48.45357263780187 79.96292799364875
563.5899866236172 50.27263076197068 79.95955781191297
543.5277777884389 52.061828645190396 79.95618762993492
523.4605922463047 53.818677934065995 79.9528174477385
503.3884299972774 55.54069027514673 79.94944726545678
483.31129104135516 57.22537731499425 79.94607708315257
463.229175378606 58.87025070017813 79.94270690084493
443.1420830090255 60.47282207728009 79.9393367185377
423.0500139326119 62.03060309288337 79.9359665362313
402.9529681493641 63.54110539357144 79.93259635392552
382.85094565927864 65.00184062592872 79.92922617161807
362.743946462349 66.41032043654337 79.9258559892967
342.63197055857495 67.76405647201452 79.92248580691742
322.5150179480306 69.0605603789588 79.9191156243752
302.39308863113166 70.29734380396415 79.91574544158767
282.26618260927347 71.47191839327033 79.91237525929752
262.1342998858929 72.58179579142944 79.90900508258272
241.99744046343156 73.62448763787347 79.90563493126086
221.85560431546276 74.59750556153007 79.90226485769934
201.7087912702328 75.4983611971732 79.89889492734294
181.5570006609888 76.32456630047632 79.89552490669386
161.40023080397992 77.07363339477617 79.89215274945825
141.2384795904662 77.74307704972998 79.8887697231768
121.07175622691459 78.33041857104938 79.88535083451735
100.90012739343628 78.83316791554306 79.88185637221501
80.7239156051328 79.24880071604255 79.8783805450112
60.54396488425272 79.57401148743804 79.87581386819085
40.36308255243509 79.8051689406804 79.87948408657654
20.181653882790304 79.9294017246193 79.89595927120043
0.0 60.0 80.0
0.0 40.0 80.0
0.0 20.0 80.0
0.0 0.0 20.0
0.0 0.0 40.0
0.0 0.0 60.0
796.0491614084602 -52.817505310112104 19.99919589760644
796.0488293182082 -52.81799993582478 40.00000000005756
796.049161408456 -52.817505310113724 60.00080410250871
803.9508385915441 27.18249468988786 20.000804102511783
803.951170681792 27.182000064175227 40.00000000006066
803.95083859154 27.18249468988627 59.99919589760952
0.0 80.0 20.0
0.0 80.0 40.0
0.0 80.0 60.0
[...]
POINT_DATA 1025
SCALARS CellEntityIds float 1
LOOKUP_TABLE default
0.0
0.24074425986738604
0.24074425986738907
0.0
0.0
0.24074425986740317
0.24074425986740053
0.0
0.001004192891813903
0.0019514360400759035
0.0031908514725120895
0.004774124164724091
0.006720027353169445
0.009033120859295677
0.011712733297831525
0.014754113334865699
0.018149960145209282
0.021891421461382028
0.02596873743662169
0.030371607228835657
0.03508939873915365
0.04011127023476055
0.04542624329606068
0.051023247976365156
0.056891151593606346
0.06301877756074192
0.06939491798467823
0.07600834227096114
0.08284780311215043
0.08990204072813242
0.0971597859169771
0.10460976228269571
0.11224068788449405
0.12004127647358906
0.1280002384319222
0.13610628149301462
0.14434811130194042
0.152714431856604
0.16119394586368405
0.16977535504461094
0.1784473603832527
0.1871986623018334
0.19601795890464727
0.20489393887711976
0.2138152187538368
0.22277030038753623
0.2317476403859368
0.2402328076846061
0.24005959638484575
0.2402328076846063
0.23174764038605278
0.22277030038776477
0.21381521875417708
0.2048939388775705
0.1960179589052072
0.1871986623025002
0.17844736038402348
0.16977535504548305
0.1611939458646537
0.1527144318576677
0.1443481113030938
0.136106281494253
0.12800023843324063
0.12004127647498156
0.11224068788590369
0.1046097622840614
0.09715978591829728
0.08990204072940562
0.08284780311337543
0.0760083422721368
0.06939491798580319
0.06301877756181495
0.05689115159462647
0.051023247977331224
0.04542624329697172
0.04011127023559618
0.03508939873989906
0.030371607229483844
0.02596873743717294
0.021891421461842926
0.018149960145586903
0.014754113335167525
0.011712733298065398
0.009033120859469897
0.0067200273532929235
0.004774124164808187
0.0031908514725647024
0.0019514360401042515
0.0010041928918256926
0.0
0.0
0.0
0.001004192891816179
0.0019514360400805235
0.0031908514725187513
0.0047741241647322715
0.006720027353178736
0.009033120859305802
0.011712733297842311
0.01475411333487703
0.01814996014522104
0.02189142146139414
0.02596873743663416
0.03037160722884839
0.03508939873916666
0.040111270234773795
0.0454262432960742
0.051023247976378895
0.056891151593620445
0.06301877756075619
0.06939491798469274
0.07600834227097587
0.08284780311216525
0.08990204072814742
0.0971597859169923
0.10460976228271114
0.11224068788450964
0.12004127647360487
0.1280002384319383
0.13610628149303095
0.14434811130195666
0.15271443185662056
0.1611939458637008
0.16977535504462785
0.17844736038326955
0.18719866230185037
0.19601795890466397
0.20489393887713617
0.21381521875385368
0.22277030038755313
0.2317476403859538
0.2402328076846217
0.24005959638486007
0.24023280768461922
0.23174764038606402
0.2227703003877757
0.21381521875418769
0.20489393887758045
0.19601795890521673
0.18719866230250948
0.17844736038403244
0.16977535504549118
0.16119394586466157
0.15271443185767508
0.14434811130310052
0.13610628149425927
0.1280002384332461
0.12004127647498643
0.11224068788590782
0.10460976228406492
0.09715978591830016
0.08990204072940798
0.08284780311337722
0.07600834227213793
0.06939491798580372
0.06301877756181487
0.056891151594625704
0.05102324797732984
0.045426243296969745
0.040111270235593556
0.03508939873989591
0.030371607229480138
0.025968737437168685
0.02189142146183818
0.018149960145581633
0.014754113335161814
0.011712733298059313
0.009033120859463539
0.006720027353286474
0.004774124164801921
0.00319085147255906
0.0019514360400998993
0.0010041928918233093
0.0
0.0
0.0
0.0
0.0
0.0
0.24075029043204435
0.24075264504170085
0.2407502904320531
0.240750290432046
0.24075264504170088
0.2407502904320518
0.0
0.0
0.0
0.0004661657966493285
6.808433831272397e-06
0.00046616579665365965
0.0011017529047283568
0.0006105713702751013
0.0011017529047410936
0.0021424489746915227
0.0016692950741433352
0.002142448974716591
0.0036179754543687226
0.0031523231060390992
0.0036179754544098048
0.0055063299306217705
0.00504725525407859
0.0055063299306828285
0.0077917928842678895
0.007339360313829196
0.007791792884354567
0.010461600765407666
0.010016356182338289
0.010461600765524406
0.013504293357733496
0.013066628011189862
0.01350429335788442
0.016908626609062866
0.016478830573736794
0.01690862660925187
0.020663372520631766
0.02024165641076346
0.020663372520862613
0.02475727925116046
0.02434380036365136
0.02475727925143664
0.029179076988252842
0.028773953872471725
0.029179076988577697
0.033917484377085826
0.03352080683565313
0.03391748437745941
0.03896121268092137
0.03857304864949431
0.03896121268134015
0.044298968115086754
0.04391936861177873
0.04429896811554329
0.0499194532811404
0.04954845601423955
0.049919453281624476
0.05581136811943776
0.0554490001547051
0.05581136811994883
0.061963410577864426
0.06160969033441279
0.06196341057840205
0.06836427709403675
0.06801921585575012
0.06836427709460025
0.0750026629486703
0.07466626602136356
0.07500266294925924
0.08186726252791161
0.08153953013392516
0.08186726252852518
0.08894676952054495
0.0886276974960974
0.08894676952118268
0.09622987706810258
0.09591945741053418
0.09622987706876376
0.10370527788053452
0.10340349917988298
0.10370527788121853
0.11136166432640544
0.11106851210678119
0.11136166432711139
0.11918772850407025
0.11890318549385703
0.11918772850476748
0.1271721622984645
0.12689620864379403
0.12717216229912448
0.1353036574271692
0.13503627085969797
0.13530365742778902
0.14357090547878382
0.14331206144634237
0.14357090547936102
0.15196259794624467
0.15171226971311944
0.1519625979467767
0.16046742625638558
0.16022558497487946
0.1604674262568704
0.16907408177883607
0.16884069652592332
0.16907408177927213
0.17777125574763175
0.1775462934406367
0.17777125574801705
0.18654763869893118
0.18633106381752612
0.18654763869926438
0.1953919187337899
0.19518369203557243
0.19539191873406925
0.20429277369387047
0.20409285640895727
0.20429277369409538
0.21323886175827303
0.2130472418706493
0.21323886175844223
0.22221877056423409
0.22203568128642856
0.22221877056434752
0.23122117239270437
0.23104689908634124
0.2312211723927616
0.000907138540388485
0.0009223120334594775
0.0009071385403896857
0.001971419598647954
0.001979255009986332
0.001971419598650335
0.003282657875249633
0.0033126709005096167
0.0032826578752529673
0.0049045940231650575
0.004946432813073096
0.00490459402316912
0.006869139591558921
0.00691745923199804
0.006869139591563539
0.009191529245536666
0.009242950258076761
0.00919152924554171
0.011875405149370681
0.011928228091400803
0.011875405149376054
0.014918012099910795
0.014971241935413748
0.014918012099916436
0.01831309997798863
0.018366101176146815
0.018313099977994497
0.02205245624875414
0.022104795537025677
0.02205245624876021
0.026126732667677028
0.026178106041739636
0.02612673266768322
0.030525900995849398
0.030576090692847013
0.03052590099585578
0.03523951302167955
0.03528836029879559
0.03523951302168607
0.04025685343165838
0.040304240594831786
0.04025685343166502
0.045567032396304996
0.045612870784692096
0.04556703239631174
0.05115904321527464
0.05120326504910002
0.05115904321528151
0.05702179914654387
0.05706435190989594
0.05702179914655089
0.06314415750373722
0.06318500000884314
0.06314415750374436
0.06951493577224933
0.06955403535667956
0.06951493577225652
0.07612292260658989
0.0761602531064765
0.07612292260659723
0.08295688547471365
0.08299242573822302
0.082956885474721
0.09000557606276949
0.09003930884547624
0.09000557606277697
0.09725773415683822
0.09728964529091268
0.09725773415684587
0.10470209047163637
0.10473216823394695
0.10470209047164408
0.11232736873990234
0.11235560336639998
0.11232736873991021
0.12012228727535451
0.1201486705842672
0.12012228727536242
0.12807556015574686
0.12810008525257735
0.12807556015575497
0.13617589812868022
0.1361985591732903
0.13617589812868836
0.14441200931279383
0.1444328013338093
0.144412009312802
0.15277259974648033
0.1527915184915005
0.15277259974648866
0.16124637382163068
0.16126341563234187
0.16124637382163903
0.16982203462951231
0.16983719633764552
0.16982203462952056
0.17848828421920723
0.17850156306799617
0.17848828421921573
0.18723382380441692
0.1872452176296525
0.18723382380442516
0.19604735334682863
0.19605686161932012
0.19604735334683687
0.204917570858196
0.20492520016172625
0.20491757085820436
0.21383315239223666
0.2138389276891899
0.21383315239224512
0.22278278890601255
0.22278678990819856
0.22278278890602102
0.2317554065218708
0.23175810263210778
0.23175540652187937
0.2402384126962702
0.2402413339426246
0.24023841269627833
0.24006470886177983
0.24006804123148362
0.24006470886178718
0.24023841269626983
0.24024133394262356
0.24023841269627655
0.23175540652198534
0.23175810263222069
0.23175540652199092
0.22278278890623932
0.22278678990842396
0.22278278890624492
0.21383315239257528
0.2138389276895268
0.21383315239258047
0.20491757085864507
0.20492520016217375
0.20491757085864998
0.1960473533473863
0.19605686161987596
0.19604735334739115
0.1872338238050813
0.18724521763031501
0.18723382380508585
0.17848828421997578
0.17850156306876264
0.17848828421998025
0.16982203463038156
0.16983719633851274
0.16982203463038595
0.16124637382259752
0.16126341563330637
0.16124637382260157
0.15277259974754098
0.15279151849255865
0.1527725997475447
0.14441200931394393
0.14443280133495684
0.14441200931394724
0.1361758981299153
0.13619855917452242
0.13617589812991832
0.12807556015706165
0.12810008525388916
0.12807556015706442
0.12012228727674343
0.12014867058565296
0.12012228727674577
0.11232736874130811
0.11235560336780258
0.11232736874131019
0.1047020904729981
0.10473216823530529
0.10470209047299983
0.09725773415815436
0.09728964529222539
0.09725773415815586
0.09000557606403857
0.09003930884674191
0.09000557606403978
0.08295688547593441
0.0829924257394403
0.08295688547593533
0.07612292260776114
0.07616025310764421
0.0761229226077617
0.06951493577336983
0.06955403535779632
0.06951493577337017
0.0631441575048058
0.06318500000990786
0.06314415750480581
0.05702179914755945
0.057064351910907564
0.057021799147559116
0.05115904321623609
0.05120326505005743
0.051159043216235434
0.04556703239721138
0.04561287078559441
0.04556703239721043
0.04025685343248933
0.04030424059565853
0.04025685343248808
0.035239513022420246
0.03528836029953202
0.03523951302241871
0.03052590099649293
0.030576090693486255
0.030525900996491145
0.026126732668223653
0.026178106042282014
0.026126732668221624
0.0220524562492105
0.022104795537477774
0.022052456249208218
0.018313099978361804
0.018366101176515742
0.018313099978359296
0.014918012100208315
0.014971241935707088
0.014918012100205585
0.011875405149600476
0.011928228091626532
0.011875405149597581
0.00919152924570712
0.009242950258243331
0.009191529245704112
0.006869139591679083
0.0069174592321146295
0.006869139591676059
0.00490459402324659
0.0049464328131515346
0.004904594023243685
0.003282657875300819
0.0033126709005583733
0.0032826578752982428
0.0019714195986760305
0.001979255010012592
0.0019714195986740646
0.0009071385403997302
0.0009223120334696138
0.0009071385403987248
0.0
0.0
0.0
0.0
0.0
0.0
0.0
0.0
0.0
0.0004661657966513645
6.8084338316744435e-06
0.000466165796651392
0.0011017529047325496
0.0006105713702758861
0.0011017529047374986
0.002142448974696875
0.001669295074144522
0.002142448974712871
0.0036179754543747534
0.003152323106040694
0.0036179754544063795
0.005506329930628304
0.005047255254080587
0.005506329930679825
0.007791792884274847
0.007339360313831605
0.00779179288435203
0.01046160076541501
0.010016356182341115
0.010461600765522362
0.013504293357741223
0.0130666280111931
0.01350429335788288
0.016908626609070908
0.016478830573740423
0.016908626609250826
0.020663372520640128
0.020241656410767497
0.020663372520862085
0.024757279251169134
0.0243438003636558
0.0247572792514366
0.029179076988261835
0.02877395387247654
0.02917907698857815
0.03391748437709509
0.03352080683565833
0.03391748437746034
0.03896121268093091
0.03857304864949987
0.03896121268134157
0.04429896811509658
0.04391936861178471
0.04429896811554523
0.04991945328115062
0.049548456014245935
0.04991945328162697
0.05581136811944832
0.05544900015471195
0.05581136811995186
0.06196341057787527
0.06160969033442004
0.06196341057840561
0.06836427709404794
0.06801921585575785
0.06836427709460435
0.07500266294868176
0.0746662660213716
0.07500266294926382
0.08186726252792333
0.08153953013393361
0.08186726252853024
0.08894676952055688
0.0886276974961063
0.08894676952118823
0.0962298770681148
0.09591945741054325
0.09622987706876973
0.10370527788054712
0.10340349917989257
0.10370527788122501
0.11136166432641831
0.11106851210679118
0.11136166432711844
0.11918772850408332
0.11890318549386755
0.11918772850477515
0.127172162298478
0.12689620864380488
0.12717216229913267
0.13530365742718303
0.13503627085970926
0.13530365742779785
0.1435709054787978
0.14331206144635397
0.14357090547937018
0.15196259794625902
0.1517122697131316
0.1519625979467865
0.16046742625640015
0.16022558497489198
0.16046742625688062
0.16907408177885094
0.1688406965259361
0.16907408177928257
0.17777125574764674
0.1775462934406497
0.1777712557480281
0.1865476386989462
0.18633106381753933
0.18654763869927554
0.1953919187338047
0.1951836920355855
0.19539191873408057
0.20429277369388532
0.20409285640897062
0.20429277369410703
0.2132388617582881
0.21304724187066296
0.21323886175845447
0.2222187705642494
0.22203568128644247
0.22221877056436
0.23122117239272005
0.23104689908635528
0.23122117239277418
0.0004119303796504577
0.00041613204741697816
0.00041193037965140593
0.00014730046659775694
0.0001770063136602723
0.00014730046659795022
0.0004119303796543377
0.0004161320474201424
0.0004119303796534981
0.0011879594769108716
0.0012172641248098669
0.0011879594769128464
0.0007955393679379458
0.0008525021826885743
0.000795539367938338
0.0011879594769225654
0.0012172641248201542
0.0011879594769210768
0.0022971854266697943
0.002346639789314114
0.0022971854266723574
0.001871620584534372
0.0019368373910173238
0.001871620584534967
0.0022971854266931025
0.0023466397893355372
0.0022971854266914706
0.0037957806216112103
0.0038542098130837656
0.0037957806216141416
0.003355752004613654
0.0034233827518668535
0.0033557520046144525
0.003795780621650099
0.003854209813120525
0.003795780621648546
0.0056903678557620185
0.005751277369487504
0.005690367855765223
0.0052464881348395775
0.005313458367348703
0.00524648813484058
0.0056903678558206895
0.0057512773695439145
0.005690367855819299
0.007975867791849183
0.008036926415574287
0.007975867791852626
0.007533081126596553
0.007598381029953459
0.00753308112659776
0.007975867791933395
0.008036926415656183
0.007975867791932208
0.01064326674242737
0.010703530387881207
0.010643266742431013
0.010204337874092128
0.010267744903934495
0.010204337874093534
0.010643266742541605
0.01070353038799311
0.010643266742540652
0.013682354640399703
0.013741413869740206
0.013682354640403524
0.013248880766919864
0.013310357176761612
0.013248880766921475
0.013682354640548088
0.013741413869886266
0.013682354640547366
0.017082399902198505
0.017140031769855395
0.017082399902202516
0.016655375457550567
0.016714924616938374
0.01665537545755239
0.017082399902384988
0.017140031770039546
0.017082399902384516
0.02083242776184676
0.020888494310679795
0.020832427761850937
0.020412503221176593
0.020470129174019278
0.020412503221178605
0.02083242776207508
0.020888494310905854
0.020832427762074848
0.02492133313549299
0.024975742443935595
0.02492133313549731
0.024508951854309832
0.02456465640487381
0.024508951854312046
0.02492133313576667
0.02497574244420701
0.024921333135766673
0.029337937076977978
0.02939062590270201
0.029337937076982443
0.028933410551167327
0.02898719418673189
0.02893341055116974
0.0293379370773003
0.029390625903022077
0.029337937077300553
0.03407101655720784
0.034121940354025396
0.034071016557212494
0.033674568701918296
0.0337264315082023
0.03367456870192088
0.03407101655757892
0.03412194035439428
0.0340710165575794
0.03910932122857285
0.039158447959356635
0.03910932122857764
0.038721115659774444
0.03877105763436848
0.03872111565977719
0.0391093212289892
0.03915844795977076
0.039109321228989906
0.044441583210902434
0.04448888937118752
0.04444158321090737
0.044061740744603305
0.04410976187909883
0.044061740744606274
0.044441583211356515
0.044488889371639535
0.04444158321135749
0.05005652301323859
0.05010199104068764
0.05005652301324368
0.049685133263001426
0.04973123355344756
0.049685133263004645
0.0500565230137203
0.05010199104116724
0.05005652301372153
0.055942853236651734
0.05598646979251275
0.055942853236656986
0.05557998251805074
0.0556241619632688
0.05557998251805418
0.05594285323716045
0.05598646979301948
0.05594285323716197
0.062089280962066506
0.06213103576782883
0.06208928096207194
0.061734977812262344
0.06177723641202077
0.061734977812265994
0.06208928096260185
0.062131035768362194
0.06208928096260366
0.0684845093335613
0.06852439436673209
0.06848450933356687
0.06813880844818265
0.06817914620247222
0.06813880844818646
0.06848450933412253
0.06852439436729141
0.06848450933412462
0.07511723863456968
0.07515524756167416
0.07511723863457542
0.07478016372842436
0.07481858063726071
0.07478016372842844
0.07511723863515635
0.07515524756225894
0.07511723863515866
0.08197616703574609
0.08201229480540054
0.08197616703575189
0.08164773295562965
0.0816842290190211
0.0816477329556339
0.08197616703635743
0.08201229480601017
0.08197616703636003
0.08904999112507545
0.0890842336712505
0.08904999112508136
0.08873020543244882
0.08876478065039826
0.08873020543245318
0.089049991125711
0.08908423367188437
0.0890499911257138
0.09632740629044884
0.09635976031295773
0.09632740629045494
0.09601627046153353
0.09604892483404265
0.09601627046153809
0.09632740629110795
0.09635976031361515
0.09632740629111096
0.10379710700034875
0.1038275698003388
0.10379710700035509
0.1034946173455359
0.10352535087260889
0.10349461734554068
0.10379710700103076
0.10382756980101898
0.10379710700103399
0.11144778701294072
0.11147635636813634
0.11144778701294718
0.11115393538711041
0.11118274806875866
0.11115393538711549
0.11144778701364459
0.11147635636883872
0.11144778701364814
0.11926813953408355
0.11929481360313979
0.11926813953409009
0.11898291388892451
0.11900980572516605
0.11898291388892972
0.11926813953477884
0.11929481360383355
0.11926813953478266
0.12724685733830984
0.12727163458671584
0.12724685733831664
0.12697024215368669
0.12699521314448706
0.12697024215369218
0.127246857338968
0.1272716345873726
0.1272468573389721
0.13537263286271706
0.13539551200471336
0.13537263286272389
0.135104609484188
0.13512765962916173
0.13510460948419353
0.13537263286333523
0.13539551200532993
0.13537263286333948
0.14363415828066467
0.14365513823289805
0.14363415828067175
0.14337470518320056
0.14339583448056945
0.14337470518320639
0.1436341582812403
0.14365513823347237
0.14363415828124484
0.15202012555974453
0.15203920540310048
0.1520201255597517
0.15176921855251074
0.1517884269970109
0.1517692185525168
0.15202012556027508
0.15203920540362972
0.15202012556027994
0.16051922650634137
0.16053640545567507
0.16051922650634873
0.16027683888836786
0.16029412647050953
0.16027683888837407
0.16051922650682485
0.16053640545615727
0.16051922650682998
0.16912015279503045
0.16913543018728588
0.1691201527950378
0.16888625546827926
0.1689016222018178
0.16888625546828565
0.16912015279546497
0.16913543018771962
0.16912015279547046
0.17781159599134758
0.17782497137657396
0.17781159599135504
0.17758615751298287
0.1775996035754463
0.1775861575129893
0.1778115959917318
0.17782497137695713
0.1778115959917372
0.18658224756726235
0.1865937211098319
0.1865822475672698
0.18636523416401818
0.18637676056780106
0.18636523416402487
0.18658224756759442
0.186593721110163
0.1865822475676
0.19542079933775405
0.1954303736473676
0.1954207993377613
0.19521217449838152
0.19522178478756555
0.19521217449838807
0.19542079933803244
0.19543037364764498
0.1954207993380382
0.2043159439528371
0.2043236278699697
0.20431594395284447
0.2041156719837463
0.20412337874707315
0.2041156719837528
0.204315943953061
0.20432362787019287
0.20431594395306668
0.21325638670198072
0.2132622103486987
0.21325638670198838
0.21306444698903867
0.2130702847687501
0.21306444698904545
0.2132563867021493