# vtk DataFile Version 2.0
mesh vtk view
ASCII
DATASET UNSTRUCTURED_GRID
POINTS 1025 double
0.0 0.0 0.0
793.4177544930595 -88.02714400500936 -0.0020863308507535518
806.5822455069546 -8.027144005009418 0.0020863310477527135
0.0 80.0 0.0
0.0 0.0 80.0
793.4177544930455 -88.0271440050146 80.00208633104268
806.5822455069407 -8.027144005014662 79.99791366915439
0.0 80.0 80.0
19.697243528844513 -0.11766379229952802 -0.17340121466525643
39.39486241292656 -0.32471843219233354 -0.20085985570573234
59.09339186006015 -0.7099808542540456 -0.20697688634907252
78.79347399209823 -1.251998806568127 -0.2026990916488285
98.49978767842762 -1.9447201407191728 -0.19690604630937766
118.2137396227694 -2.782635714856306 -0.19108194247234725
137.93586735031917 -3.7615382503663706 -0.18538379470684233
157.66628199459862 -4.877277675264057 -0.1797454175712983
177.40499889971954 -6.125722832402288 -0.17412515551213595
197.1520145511148 -7.502731337876559 -0.16850845443057733
216.90732614253318 -9.004157397248262 -0.16289190383677687
236.67093256271983 -10.625853936640008 -0.15727511456779794
256.4428335254431 -12.363673680677383 -0.15165819569821704
276.22302898668033 -14.213469344242506 -0.146041234507069
296.011518950343 -16.171093659724818 -0.1404242640236275
315.8083034221443 -18.232399368046657 -0.13480729271127184
335.6133824045367 -20.393239212933715 -0.12919032180772805
355.42675589821283 -22.649465938699258 -0.12357335117574085
375.24842390329616 -24.99693228970441 -0.11795638064029605
395.07838641978657 -27.431491010281043 -0.1123394101280604
414.91664344767287 -29.948994844742813 -0.10672243961855882
434.76319498694977 -32.54529653739704 -0.10110546910802932
454.61804103761494 -35.21624883254956 -0.09548849859615985
474.4811815996657 -37.95770447450576 -0.08987152808358428
494.35261667309464 -40.76551620756859 -0.08425455757671302
514.2323462579637 -43.63553677604257 -0.07863758710729864
534.1203703542764 -46.56361892419564 -0.07302061678002955
554.0166889621827 -49.5456153962577 -0.0674036468167217
573.9213020827531 -52.577378936570184 -0.0617866772571278
593.834209719431 -55.65476229044994 -0.05616970580933129
613.7554118792866 -58.7736182070133 -0.050552719242157484
633.6849085612134 -61.92979944769068 -0.04493567052985775
653.622699684205 -65.11915878717444 -0.039318446804520825
673.5687847913233 -68.33754898339463 -0.03370097829349821
693.5231624047227 -71.58082202220841 -0.028084143342944932
713.4858281495231 -74.84482630964004 -0.02247535597858263
733.4567730909432 -78.12538345862643 -0.01690555493151804
753.4359414042918 -81.41826929032715 -0.0115169253298735
773.423102026639 -84.71923016405303 -0.006313308226060515
796.7152131801446 -68.02409510058595 -3.916123645689898e-05
799.999999999997 -48.02185200783764 9.853682430309715e-11
803.2847868198585 -28.024095100579245 3.9161433487963935e-05
786.5768979734079 -4.719230164094569 0.006313308416072589
766.5640585957882 -1.4182692904100094 0.011516925512828638
746.5432269091701 1.8746165412496651 0.01690555510744281
726.5141718506235 5.1551736901954825 0.02247535614745399
706.4768375954576 8.419177977587012 0.028084143504699444
686.4312152088908 11.662451016361544 0.033700978448234
666.377300316043 14.880841212543558 0.039318446952301495
646.315091439069 18.07020055199009 0.044935670670584384
626.2445881210302 21.226381792631642 0.050552719375982644
606.1657902809204 24.345237709160443 0.05616970593620854
586.078697917633 27.422621063007256 0.06178667737713305
565.9833110382384 30.454384603288517 0.06740364692990816
545.8796296461799 33.436381075321144 0.07302061688645536
525.7676537425278 36.36446322344698 0.0786375872071089
505.6473833274316 39.234483791914684 0.08425455767001883
485.5188184008943 42.04229552499371 0.0898715281705171
465.38195896297884 44.783751166966674 0.09548849867687827
445.2368050136777 47.4547034621365 0.10110546918266981
425.0833565529881 50.051005154808486 0.1067224396872663
404.92161358090806 52.56850898928842 0.11233941019099798
384.7515760974319 55.00306770988374 0.11795638069765545
364.5732441025488 57.35053406090801 0.12357335122771482
344.38661759625825 59.606760786693044 0.12919032185449417
324.191696578684 61.76760063160002 0.1348072927530548
303.9884810505186 63.82890633994213 0.1404242640606337
283.77697101413816 65.78653065545222 0.14604123453953258
263.5571664752649 67.63632631905061 0.1516581957264108
243.3290674379235 69.37414606312385 0.1572751145919916
223.09267385806962 70.99584260255135 0.162891903857255
202.8479854494472 72.49726866195641 0.16850845444761794
182.59500110080137 73.87427716746144 0.17412515552600835
162.33371800588077 75.12272232462772 0.17974541758230186
142.06413265011867 76.23846174955055 0.1853837947152876
121.78626037762672 77.21736428508274 0.19108194247854712
101.50021232192367 78.0552798592387 0.19690604631366637
81.20652600817857 78.74800119340435 0.20269909165156802
60.90660814013913 79.29001914573003 0.20697688635072028
40.60513758720377 79.67528156780048 0.20085985570681966
20.30275647122315 79.88233620769856 0.1734012146663778
0.0 60.0 0.0
0.0 40.0 0.0
0.0 20.0 0.0
19.697243528843796 -0.11766379230006875 80.1734012146654
39.39486241292513 -0.32471843219309293 80.20085985570623
59.09339186005801 -0.7099808542549688 80.20697688635033
78.79347399209537 -1.251998806569187 80.20269909165123
98.49978767842408 -1.9447201407203665 80.19690604631326
118.21373962276519 -2.7826357148576317 80.19108194247806
137.93586735031434 -3.7615382503678347 80.18538379471471
157.66628199459316 -4.8772776752656615 80.17974541758164
177.40499889971346 -6.125722832404023 80.17412515552526
197.15201455110812 -7.502731337878418 80.1685084544468
216.90732614252596 -9.004157397250262 80.16289190385636
236.67093256271207 -10.625853936642127 80.15727511459102
256.4428335254348 -12.363673680679632 80.15165819572536
276.2230289866716 -14.213469344244878 80.14604123453837
296.0115189503337 -16.171093659727326 80.14042426405933
315.80830342213466 -18.232399368049293 80.1348072927516
335.6133824045266 -20.393239212936535 80.1291903218529
355.4267558982023 -22.649465938702193 80.12357335122597
375.24842390328524 -24.996932289707487 80.11795638069579
395.07838641977526 -27.431491010284258 80.112339410189
414.9166434476613 -29.94899484474611 80.10672243968514
434.76319498693783 -32.54529653740047 80.10110546918041
454.6180410376027 -35.21624883255311 80.09548849867451
474.4811815996532 -37.957704474509455 80.08987152816802
494.3526166730819 -40.76551620757241 80.08425455766734
514.2323462579508 -43.635536776046536 80.07863758720424
534.1203703542632 -46.56361892419977 80.07302061688335
554.0166889621693 -49.545615396261965 80.06740364692658
573.9213020827397 -52.57737893657449 80.06178667737362
593.8342097194173 -55.654762290454414 80.05616970593248
613.755411879273 -58.77361820701791 80.05055271937204
633.6849085611997 -61.929799447695395 80.0449356706665
653.6226996841913 -65.1191587871792 80.03931844694804
673.5687847913094 -68.33754898339949 80.03370097844382
693.5231624047088 -71.58082202221324 80.02808414350021
713.4858281495091 -74.84482630964483 80.0224753561428
733.4567730909292 -78.12538345863143 80.01690555510261
753.4359414042779 -81.4182692903322 80.01151692550779
773.423102026625 -84.7192301640582 80.00631330841101
796.7152131801306 -68.02409510059117 80.00003916143095
799.9999999999832 -48.021852007842895 80.00000000009851
803.2847868198445 -28.024095100584475 79.99996083876609
786.576897973394 -4.719230164099798 79.99368669177915
766.5640585957743 -1.4182692904151821 79.9884830746754
746.5432269091561 1.8746165412445635 79.98309444507373
726.5141718506096 5.155173690190551 79.97752464402659
706.4768375954437 8.41917797758218 79.97191585666226
686.4312152088769 11.66245101635674 79.96629902171173
666.3773003160292 14.880841212538812 79.96068155320066
646.3150914390552 18.070200551985586 79.95506432947529
626.2445881210166 21.226381792627166 79.94944728076297
606.1657902809069 24.345237709156088 79.94383029419576
586.0786979176196 27.422621063003064 79.93821332274793
565.983311038225 30.454384603284424 79.93259635318827
545.8796296461667 33.436381075317286 79.92697938322486
525.7676537425149 36.36446322344328 79.9213624128975
505.64738332741894 39.23448379191119 79.91574544242796
485.51881840088186 42.04229552499038 79.91012847192094
465.3819589629666 44.78375116696352 79.90451150140822
445.2368050136658 47.45470346213345 79.89889453089617
425.08335655297645 50.05100515480559 79.89327756038551
404.92161358089675 52.568508989285704 79.88766058987585
384.751576097421 55.00306770988117 79.88204361936346
364.57324410253824 57.35053406090561 79.87642664882785
344.38661759624813 59.606760786690835 79.8708096781957
324.1916965786743 61.76760063159797 79.865192707292
303.98848105050934 63.82890633994025 79.85957573597946
283.77697101412934 65.78653065545053 79.85395876549586
263.5571664752566 67.63632631904905 79.84834180430454
243.32906743791574 69.37414606312244 79.84272488543476
223.0926738580624 70.99584260255011 79.83710809616557
202.84798544944053 72.49726866195532 79.83149154557155
182.5950011007953 73.87427716746052 79.82587484448977
162.33371800587528 75.12272232462695 79.82025458243041
142.0641326501138 76.23846174954996 79.81461620529466
121.78626037762251 77.2173642850823 79.80891805752893
101.50021232192013 78.05527985923842 79.80309395369169
81.20652600817573 78.74800119340424 79.79730090835199
60.90660814013698 79.29001914573007 79.7930231136514
40.605137587202336 79.67528156780067 79.79914014429424
20.302756471222434 79.88233620769883 79.82659878533403
0.0 60.0 80.0
0.0 40.0 80.0
0.0 20.0 80.0
0.0 0.0 20.0
0.0 0.0 40.0
0.0 0.0 60.0
793.4152690141003 -88.02917551685358 19.998659829344067
793.4147155303469 -88.02999989304138 40.00000000009593
793.4152690140933 -88.02917551685628 60.001340170847854
806.5847309859068 -8.029175516853641 20.001340170852973
806.5852844696533 -8.029999893041378 40.0000000001011
806.5847309858999 -8.029175516856299 59.998659829349194
0.0 80.0 20.0
0.0 80.0 40.0
0.0 80.0 60.0
[...]
POINT_DATA 1025
SCALARS CellEntityIds float 1
LOOKUP_TABLE default
0.0
0.24074425986738604
0.24074425986738907
0.0
0.0
0.24074425986740317
0.24074425986740053
0.0
0.001004192891813903
0.0019514360400759035
0.0031908514725120895
0.004774124164724091
0.006720027353169445
0.009033120859295677
0.011712733297831525
0.014754113334865699
0.018149960145209282
0.021891421461382028
0.02596873743662169
0.030371607228835657
0.03508939873915365
0.04011127023476055
0.04542624329606068
0.051023247976365156
0.056891151593606346
0.06301877756074192
0.06939491798467823
0.07600834227096114
0.08284780311215043
0.08990204072813242
0.0971597859169771
0.10460976228269571
0.11224068788449405
0.12004127647358906
0.1280002384319222
0.13610628149301462
0.14434811130194042
0.152714431856604
0.16119394586368405
0.16977535504461094
0.1784473603832527
0.1871986623018334
0.19601795890464727
0.20489393887711976
0.2138152187538368
0.22277030038753623
0.2317476403859368
0.2402328076846061
0.24005959638484575
0.2402328076846063
0.23174764038605278
0.22277030038776477
0.21381521875417708
0.2048939388775705
0.1960179589052072
0.1871986623025002
0.17844736038402348
0.16977535504548305
0.1611939458646537
0.1527144318576677
0.1443481113030938
0.136106281494253
0.12800023843324063
0.12004127647498156
0.11224068788590369
0.1046097622840614
0.09715978591829728
0.08990204072940562
0.08284780311337543
0.0760083422721368
0.06939491798580319
0.06301877756181495
0.05689115159462647
0.051023247977331224
0.04542624329697172
0.04011127023559618
0.03508939873989906
0.030371607229483844
0.02596873743717294
0.021891421461842926
0.018149960145586903
0.014754113335167525
0.011712733298065398
0.009033120859469897
0.0067200273532929235
0.004774124164808187
0.0031908514725647024
0.0019514360401042515
0.0010041928918256926
0.0
0.0
0.0
0.001004192891816179
0.0019514360400805235
0.0031908514725187513
0.0047741241647322715
0.006720027353178736
0.009033120859305802
0.011712733297842311
0.01475411333487703
0.01814996014522104
0.02189142146139414
0.02596873743663416
0.03037160722884839
0.03508939873916666
0.040111270234773795
0.0454262432960742
0.051023247976378895
0.056891151593620445
0.06301877756075619
0.06939491798469274
0.07600834227097587
0.08284780311216525
0.08990204072814742
0.0971597859169923
0.10460976228271114
0.11224068788450964
0.12004127647360487
0.1280002384319383
0.13610628149303095
0.14434811130195666
0.15271443185662056
0.1611939458637008
0.16977535504462785
0.17844736038326955
0.18719866230185037
0.19601795890466397
0.20489393887713617
0.21381521875385368
0.22277030038755313
0.2317476403859538
0.2402328076846217
0.24005959638486007
0.24023280768461922
0.23174764038606402
0.2227703003877757
0.21381521875418769
0.20489393887758045
0.19601795890521673
0.18719866230250948
0.17844736038403244
0.16977535504549118
0.16119394586466157
0.15271443185767508
0.14434811130310052
0.13610628149425927
0.1280002384332461
0.12004127647498643
0.11224068788590782
0.10460976228406492
0.09715978591830016
0.08990204072940798
0.08284780311337722
0.07600834227213793
0.06939491798580372
0.06301877756181487
0.056891151594625704
0.05102324797732984
0.045426243296969745
0.040111270235593556
0.03508939873989591
0.030371607229480138
0.025968737437168685
0.02189142146183818
0.018149960145581633
0.014754113335161814
0.011712733298059313
0.009033120859463539
0.006720027353286474
0.004774124164801921
0.00319085147255906
0.0019514360400998993
0.0010041928918233093
0.0
0.0
0.0
0.0
0.0
0.0
0.24075029043204435
0.24075264504170085
0.2407502904320531
0.240750290432046
0.24075264504170088
0.2407502904320518
0.0
0.0
0.0
0.0004661657966493285
6.808433831272397e-06
0.00046616579665365965
0.0011017529047283568
0.0006105713702751013
0.0011017529047410936
0.0021424489746915227
0.0016692950741433352
0.002142448974716591
0.0036179754543687226
0.0031523231060390992
0.0036179754544098048
0.0055063299306217705
0.00504725525407859
0.0055063299306828285
0.0077917928842678895
0.007339360313829196
0.007791792884354567
0.010461600765407666
0.010016356182338289
0.010461600765524406
0.013504293357733496
0.013066628011189862
0.01350429335788442
0.016908626609062866
0.016478830573736794
0.01690862660925187
0.020663372520631766
0.02024165641076346
0.020663372520862613
0.02475727925116046
0.02434380036365136
0.02475727925143664
0.029179076988252842
0.028773953872471725
0.029179076988577697
0.033917484377085826
0.03352080683565313
0.03391748437745941
0.03896121268092137
0.03857304864949431
0.03896121268134015
0.044298968115086754
0.04391936861177873
0.04429896811554329
0.0499194532811404
0.04954845601423955
0.049919453281624476
0.05581136811943776
0.0554490001547051
0.05581136811994883
0.061963410577864426
0.06160969033441279
0.06196341057840205
0.06836427709403675
0.06801921585575012
0.06836427709460025
0.0750026629486703
0.07466626602136356
0.07500266294925924
0.08186726252791161
0.08153953013392516
0.08186726252852518
0.08894676952054495
0.0886276974960974
0.08894676952118268
0.09622987706810258
0.09591945741053418
0.09622987706876376
0.10370527788053452
0.10340349917988298
0.10370527788121853
0.11136166432640544
0.11106851210678119
0.11136166432711139
0.11918772850407025
0.11890318549385703
0.11918772850476748
0.1271721622984645
0.12689620864379403
0.12717216229912448
0.1353036574271692
0.13503627085969797
0.13530365742778902
0.14357090547878382
0.14331206144634237
0.14357090547936102
0.15196259794624467
0.15171226971311944
0.1519625979467767
0.16046742625638558
0.16022558497487946
0.1604674262568704
0.16907408177883607
0.16884069652592332
0.16907408177927213
0.17777125574763175
0.1775462934406367
0.17777125574801705
0.18654763869893118
0.18633106381752612
0.18654763869926438
0.1953919187337899
0.19518369203557243
0.19539191873406925
0.20429277369387047
0.20409285640895727
0.20429277369409538
0.21323886175827303
0.2130472418706493
0.21323886175844223
0.22221877056423409
0.22203568128642856
0.22221877056434752
0.23122117239270437
0.23104689908634124
0.2312211723927616
0.000907138540388485
0.0009223120334594775
0.0009071385403896857
0.001971419598647954
0.001979255009986332
0.001971419598650335
0.003282657875249633
0.0033126709005096167
0.0032826578752529673
0.0049045940231650575
0.004946432813073096
0.00490459402316912
0.006869139591558921
0.00691745923199804
0.006869139591563539
0.009191529245536666
0.009242950258076761
0.00919152924554171
0.011875405149370681
0.011928228091400803
0.011875405149376054
0.014918012099910795
0.014971241935413748
0.014918012099916436
0.01831309997798863
0.018366101176146815
0.018313099977994497
0.02205245624875414
0.022104795537025677
0.02205245624876021
0.026126732667677028
0.026178106041739636
0.02612673266768322
0.030525900995849398
0.030576090692847013
0.03052590099585578
0.03523951302167955
0.03528836029879559
0.03523951302168607
0.04025685343165838
0.040304240594831786
0.04025685343166502
0.045567032396304996
0.045612870784692096
0.04556703239631174
0.05115904321527464
0.05120326504910002
0.05115904321528151
0.05702179914654387
0.05706435190989594
0.05702179914655089
0.06314415750373722
0.06318500000884314
0.06314415750374436
0.06951493577224933
0.06955403535667956
0.06951493577225652
0.07612292260658989
0.0761602531064765
0.07612292260659723
0.08295688547471365
0.08299242573822302
0.082956885474721
0.09000557606276949
0.09003930884547624
0.09000557606277697
0.09725773415683822
0.09728964529091268
0.09725773415684587
0.10470209047163637
0.10473216823394695
0.10470209047164408
0.11232736873990234
0.11235560336639998
0.11232736873991021
0.12012228727535451
0.1201486705842672
0.12012228727536242
0.12807556015574686
0.12810008525257735
0.12807556015575497
0.13617589812868022
0.1361985591732903
0.13617589812868836
0.14441200931279383
0.1444328013338093
0.144412009312802
0.15277259974648033
0.1527915184915005
0.15277259974648866
0.16124637382163068
0.16126341563234187
0.16124637382163903
0.16982203462951231
0.16983719633764552
0.16982203462952056
0.17848828421920723
0.17850156306799617
0.17848828421921573
0.18723382380441692
0.1872452176296525
0.18723382380442516
0.19604735334682863
0.19605686161932012
0.19604735334683687
0.204917570858196
0.20492520016172625
0.20491757085820436
0.21383315239223666
0.2138389276891899
0.21383315239224512
0.22278278890601255
0.22278678990819856
0.22278278890602102
0.2317554065218708
0.23175810263210778
0.23175540652187937
0.2402384126962702
0.2402413339426246
0.24023841269627833
0.24006470886177983
0.24006804123148362
0.24006470886178718
0.24023841269626983
0.24024133394262356
0.24023841269627655
0.23175540652198534
0.23175810263222069
0.23175540652199092
0.22278278890623932
0.22278678990842396
0.22278278890624492
0.21383315239257528
0.2138389276895268
0.21383315239258047
0.20491757085864507
0.20492520016217375
0.20491757085864998
0.1960473533473863
0.19605686161987596
0.19604735334739115
0.1872338238050813
0.18724521763031501
0.18723382380508585
0.17848828421997578
0.17850156306876264
0.17848828421998025
0.16982203463038156
0.16983719633851274
0.16982203463038595
0.16124637382259752
0.16126341563330637
0.16124637382260157
0.15277259974754098
0.15279151849255865
0.1527725997475447
0.14441200931394393
0.14443280133495684
0.14441200931394724
0.1361758981299153
0.13619855917452242
0.13617589812991832
0.12807556015706165
0.12810008525388916
0.12807556015706442
0.12012228727674343
0.12014867058565296
0.12012228727674577
0.11232736874130811
0.11235560336780258
0.11232736874131019
0.1047020904729981
0.10473216823530529
0.10470209047299983
0.09725773415815436
0.09728964529222539
0.09725773415815586
0.09000557606403857
0.09003930884674191
0.09000557606403978
0.08295688547593441
0.0829924257394403
0.08295688547593533
0.07612292260776114
0.07616025310764421
0.0761229226077617
0.06951493577336983
0.06955403535779632
0.06951493577337017
0.0631441575048058
0.06318500000990786
0.06314415750480581
0.05702179914755945
0.057064351910907564
0.057021799147559116
0.05115904321623609
0.05120326505005743
0.051159043216235434
0.04556703239721138
0.04561287078559441
0.04556703239721043
0.04025685343248933
0.04030424059565853
0.04025685343248808
0.035239513022420246
0.03528836029953202
0.03523951302241871
0.03052590099649293
0.030576090693486255
0.030525900996491145
0.026126732668223653
0.026178106042282014
0.026126732668221624
0.0220524562492105
0.022104795537477774
0.022052456249208218
0.018313099978361804
0.018366101176515742
0.018313099978359296
0.014918012100208315
0.014971241935707088
0.014918012100205585
0.011875405149600476
0.011928228091626532
0.011875405149597581
0.00919152924570712
0.009242950258243331
0.009191529245704112
0.006869139591679083
0.0069174592321146295
0.006869139591676059
0.00490459402324659
0.0049464328131515346
0.004904594023243685
0.003282657875300819
0.0033126709005583733
0.0032826578752982428
0.0019714195986760305
0.001979255010012592
0.0019714195986740646
0.0009071385403997302
0.0009223120334696138
0.0009071385403987248
0.0
0.0
0.0
0.0
0.0
0.0
0.0
0.0
0.0
0.0004661657966513645
6.8084338316744435e-06
0.000466165796651392
0.0011017529047325496
0.0006105713702758861
0.0011017529047374986
0.002142448974696875
0.001669295074144522
0.002142448974712871
0.0036179754543747534
0.003152323106040694
0.0036179754544063795
0.005506329930628304
0.005047255254080587
0.005506329930679825
0.007791792884274847
0.007339360313831605
0.00779179288435203
0.01046160076541501
0.010016356182341115
0.010461600765522362
0.013504293357741223
0.0130666280111931
0.01350429335788288
0.016908626609070908
0.016478830573740423
0.016908626609250826
0.020663372520640128
0.020241656410767497
0.020663372520862085
0.024757279251169134
0.0243438003636558
0.0247572792514366
0.029179076988261835
0.02877395387247654
0.02917907698857815
0.03391748437709509
0.03352080683565833
0.03391748437746034
0.03896121268093091
0.03857304864949987
0.03896121268134157
0.04429896811509658
0.04391936861178471
0.04429896811554523
0.04991945328115062
0.049548456014245935
0.04991945328162697
0.05581136811944832
0.05544900015471195
0.05581136811995186
0.06196341057787527
0.06160969033442004
0.06196341057840561
0.06836427709404794
0.06801921585575785
0.06836427709460435
0.07500266294868176
0.0746662660213716
0.07500266294926382
0.08186726252792333
0.08153953013393361
0.08186726252853024
0.08894676952055688
0.0886276974961063
0.08894676952118823
0.0962298770681148
0.09591945741054325
0.09622987706876973
0.10370527788054712
0.10340349917989257
0.10370527788122501
0.11136166432641831
0.11106851210679118
0.11136166432711844
0.11918772850408332
0.11890318549386755
0.11918772850477515
0.127172162298478
0.12689620864380488
0.12717216229913267
0.13530365742718303
0.13503627085970926
0.13530365742779785
0.1435709054787978
0.14331206144635397
0.14357090547937018
0.15196259794625902
0.1517122697131316
0.1519625979467865
0.16046742625640015
0.16022558497489198
0.16046742625688062
0.16907408177885094
0.1688406965259361
0.16907408177928257
0.17777125574764674
0.1775462934406497
0.1777712557480281
0.1865476386989462
0.18633106381753933
0.18654763869927554
0.1953919187338047
0.1951836920355855
0.19539191873408057
0.20429277369388532
0.20409285640897062
0.20429277369410703
0.2132388617582881
0.21304724187066296
0.21323886175845447
0.2222187705642494
0.22203568128644247
0.22221877056436
0.23122117239272005
0.23104689908635528
0.23122117239277418
0.0004119303796504577
0.00041613204741697816
0.00041193037965140593
0.00014730046659775694
0.0001770063136602723
0.00014730046659795022
0.0004119303796543377
0.0004161320474201424
0.0004119303796534981
0.0011879594769108716
0.0012172641248098669
0.0011879594769128464
0.0007955393679379458
0.0008525021826885743
0.000795539367938338
0.0011879594769225654
0.0012172641248201542
0.0011879594769210768
0.0022971854266697943
0.002346639789314114
0.0022971854266723574
0.001871620584534372
0.0019368373910173238
0.001871620584534967
0.0022971854266931025
0.0023466397893355372
0.0022971854266914706
0.0037957806216112103
0.0038542098130837656
0.0037957806216141416
0.003355752004613654
0.0034233827518668535
0.0033557520046144525
0.003795780621650099
0.003854209813120525
0.003795780621648546
0.0056903678557620185
0.005751277369487504
0.005690367855765223
0.0052464881348395775
0.005313458367348703
0.00524648813484058
0.0056903678558206895
0.0057512773695439145
0.005690367855819299
0.007975867791849183
0.008036926415574287
0.007975867791852626
0.007533081126596553
0.007598381029953459
0.00753308112659776
0.007975867791933395
0.008036926415656183
0.007975867791932208
0.01064326674242737
0.010703530387881207
0.010643266742431013
0.010204337874092128
0.010267744903934495
0.010204337874093534
0.010643266742541605
0.01070353038799311
0.010643266742540652
0.013682354640399703
0.013741413869740206
0.013682354640403524
0.013248880766919864
0.013310357176761612
0.013248880766921475
0.013682354640548088
0.013741413869886266
0.013682354640547366
0.017082399902198505
0.017140031769855395
0.017082399902202516
0.016655375457550567
0.016714924616938374
0.01665537545755239
0.017082399902384988
0.017140031770039546
0.017082399902384516
0.02083242776184676
0.020888494310679795
0.020832427761850937
0.020412503221176593
0.020470129174019278
0.020412503221178605
0.02083242776207508
0.020888494310905854
0.020832427762074848
0.02492133313549299
0.024975742443935595
0.02492133313549731
0.024508951854309832
0.02456465640487381
0.024508951854312046
0.02492133313576667
0.02497574244420701
0.024921333135766673
0.029337937076977978
0.02939062590270201
0.029337937076982443
0.028933410551167327
0.02898719418673189
0.02893341055116974
0.0293379370773003
0.029390625903022077
0.029337937077300553
0.03407101655720784
0.034121940354025396
0.034071016557212494
0.033674568701918296
0.0337264315082023
0.03367456870192088
0.03407101655757892
0.03412194035439428
0.0340710165575794
0.03910932122857285
0.039158447959356635
0.03910932122857764
0.038721115659774444
0.03877105763436848
0.03872111565977719
0.0391093212289892
0.03915844795977076
0.039109321228989906
0.044441583210902434
0.04448888937118752
0.04444158321090737
0.044061740744603305
0.04410976187909883
0.044061740744606274
0.044441583211356515
0.044488889371639535
0.04444158321135749
0.05005652301323859
0.05010199104068764
0.05005652301324368
0.049685133263001426
0.04973123355344756
0.049685133263004645
0.0500565230137203
0.05010199104116724
0.05005652301372153
0.055942853236651734
0.05598646979251275
0.055942853236656986
0.05557998251805074
0.0556241619632688
0.05557998251805418
0.05594285323716045
0.05598646979301948
0.05594285323716197
0.062089280962066506
0.06213103576782883
0.06208928096207194
0.061734977812262344
0.06177723641202077
0.061734977812265994
0.06208928096260185
0.062131035768362194
0.06208928096260366
0.0684845093335613
0.06852439436673209
0.06848450933356687
0.06813880844818265
0.06817914620247222
0.06813880844818646
0.06848450933412253
0.06852439436729141
0.06848450933412462
0.07511723863456968
0.07515524756167416
0.07511723863457542
0.07478016372842436
0.07481858063726071
0.07478016372842844
0.07511723863515635
0.07515524756225894
0.07511723863515866
0.08197616703574609
0.08201229480540054
0.08197616703575189
0.08164773295562965
0.0816842290190211
0.0816477329556339
0.08197616703635743
0.08201229480601017
0.08197616703636003
0.08904999112507545
0.0890842336712505
0.08904999112508136
0.08873020543244882
0.08876478065039826
0.08873020543245318
0.089049991125711
0.08908423367188437
0.0890499911257138
0.09632740629044884
0.09635976031295773
0.09632740629045494
0.09601627046153353
0.09604892483404265
0.09601627046153809
0.09632740629110795
0.09635976031361515
0.09632740629111096
0.10379710700034875
0.1038275698003388
0.10379710700035509
0.1034946173455359
0.10352535087260889
0.10349461734554068
0.10379710700103076
0.10382756980101898
0.10379710700103399
0.11144778701294072
0.11147635636813634
0.11144778701294718
0.11115393538711041
0.11118274806875866
0.11115393538711549
0.11144778701364459
0.11147635636883872
0.11144778701364814
0.11926813953408355
0.11929481360313979
0.11926813953409009
0.11898291388892451
0.11900980572516605
0.11898291388892972
0.11926813953477884
0.11929481360383355
0.11926813953478266
0.12724685733830984
0.12727163458671584
0.12724685733831664
0.12697024215368669
0.12699521314448706
0.12697024215369218
0.127246857338968
0.1272716345873726
0.1272468573389721
0.13537263286271706
0.13539551200471336
0.13537263286272389
0.135104609484188
0.13512765962916173
0.13510460948419353
0.13537263286333523
0.13539551200532993
0.13537263286333948
0.14363415828066467
0.14365513823289805
0.14363415828067175
0.14337470518320056
0.14339583448056945
0.14337470518320639
0.1436341582812403
0.14365513823347237
0.14363415828124484
0.15202012555974453
0.15203920540310048
0.1520201255597517
0.15176921855251074
0.1517884269970109
0.1517692185525168
0.15202012556027508
0.15203920540362972
0.15202012556027994
0.16051922650634137
0.16053640545567507
0.16051922650634873
0.16027683888836786
0.16029412647050953
0.16027683888837407
0.16051922650682485
0.16053640545615727
0.16051922650682998
0.16912015279503045
0.16913543018728588
0.1691201527950378
0.16888625546827926
0.1689016222018178
0.16888625546828565
0.16912015279546497
0.16913543018771962
0.16912015279547046
0.17781159599134758
0.17782497137657396
0.17781159599135504
0.17758615751298287
0.1775996035754463
0.1775861575129893
0.1778115959917318
0.17782497137695713
0.1778115959917372
0.18658224756726235
0.1865937211098319
0.1865822475672698
0.18636523416401818
0.18637676056780106
0.18636523416402487
0.18658224756759442
0.186593721110163
0.1865822475676
0.19542079933775405
0.1954303736473676
0.1954207993377613
0.19521217449838152
0.19522178478756555
0.19521217449838807
0.19542079933803244
0.19543037364764498
0.1954207993380382
0.2043159439528371
0.2043236278699697
0.20431594395284447
0.2041156719837463
0.20412337874707315
0.2041156719837528
0.204315943953061
0.20432362787019287
0.20431594395306668
0.21325638670198072
0.2132622103486987
0.21325638670198838
0.21306444698903867
0.2130702847687501
0.21306444698904545
0.2132563867021493