# vtk DataFile Version 2.0
mesh vtk view
ASCII
DATASET UNSTRUCTURED_GRID
POINTS 1025 double
0.0 0.0 0.0
799.9451666472306 -0.7333095423769245 -1.738016538768863e-05
800.0548333527695 79.26669045762307 1.7380167028788847e-05
0.0 80.0 0.0
0.0 0.0 80.0
799.9451666472305 -0.7333095423769681 80.00001738016698
800.0548333527694 79.26669045762303 79.99998261983465
0.0 80.0 80.0
19.99747788913681 -0.0009801974454673914 -0.0014445176747588894
39.994958905162655 -0.002705064757056776 -0.0016732617027888999
59.99244750663445 -0.005914490822283002 -0.0017242195862062937
79.9899490427464 -0.010429767798086033 -0.0016885834456785507
99.98750249077752 -0.016200478302020233 -0.0016403245196977224
119.98511956923687 -0.02318072846424329 -0.001591806861107715
139.98280475600154 -0.03133546957802572 -0.0015443384787405586
159.98055897687135 -0.0406301294960739 -0.0014973680152119565
179.97838235967046 -0.051030293641029296 -0.0014505484592076383
199.97627487512054 -0.06250145391110472 -0.0014037585679037544
219.9742364998442 -0.07500907379308108 -0.001356969930237147
239.97226722458424 -0.08851860611538304 -0.0013101793042885398
259.97036704698047 -0.10299550202786557 -0.0012633875987029732
279.96853596668797 -0.11840521259921578 -0.0012165955405578704
299.9667739836932 -0.13471318904396537 -0.0011698034050033786
319.96508109804387 -0.15188488264772937 -0.0011230112625436228
339.96345730976026 -0.169885744719476 -0.0010762191234894715
359.96190261884817 -0.18868122657306838 -0.0010294269866975205
379.96041702530846 -0.20823677952276826 -0.0009826348507098156
399.95900052914146 -0.2285178548825937 -0.0009358427149154541
419.95765313034696 -0.24948990396641105 -0.0008890505791438689
439.9563748289249 -0.27111837808803385 -0.0008422584433637207
459.95516562487506 -0.29336872856126317 -0.0007954663075724097
479.9540255181977 -0.3162064066998966 -0.0007486741717752165
499.9529545088927 -0.3395968638177112 -0.0007018820360255431
519.9519525970354 -0.36350555122849726 -0.000655089900587904
539.9510197826169 -0.38789792024574016 -0.0006082977663344055
559.9501560655725 -0.4127394221826085 -0.0005615056351128834
579.9493614459113 -0.4379955083532001 -0.0005147135072544978
599.9486359236616 -0.46363163007973834 -0.00046792136366645285
619.9479794988828 -0.4896132387160982 -0.0004211290941265351
639.9473921715651 -0.5159057857187369 -0.0003743363068870558
659.946873941034 -0.5424747226545906 -0.0003275420617026248
679.9464248034831 -0.5692855009509569 -0.00028074577733265413
699.946044746601 -0.596303565603385 -0.00023395477083399337
719.9457337339428 -0.6234943317856504 -0.0001872308046990028
739.9454916910775 -0.6508229914718906 -0.00014083161382304958
759.9453181529577 -0.6782543551681443 -9.594167047789419e-05
779.9452111947153 -0.7057529879487138 -5.259297252530937e-05
799.9726361050685 19.26671585646447 -3.2623242193895225e-07
800.0 39.266734542510285 8.208603647628008e-13
800.0273638949316 59.26671585647116 3.262340633049389e-07
780.0547888053175 79.29424701205095 5.25929741082037e-05
760.0546818471079 79.32174564483117 9.594167200200075e-05
740.0545083090209 79.34917700852708 0.00014083161528858973
720.0542662661883 79.37650566821299 0.0001872308061057845
700.0539552535628 79.40369643439492 0.00023395477218148824
680.0535751967134 79.43071449904701 0.00028074577862167955
660.0531260591952 79.45752527734307 0.00032754206293371065
640.0526078286969 79.4840942142786 0.00037433630805937804
620.052020501412 79.51038676128094 0.0004211290952413647
600.0513640766658 79.53636836991701 0.00046792136472340295
580.0506385544489 79.56200449164328 0.0005147135082542009
560.0498439348204 79.58726057781361 0.0005615056360557825
540.0489802178088 79.61210207975023 0.0006082977672209849
520.0480474034231 79.63649444876725 0.0006550899014193727
500.0470454915986 79.66040313617799 0.0007018820368028265
480.0459744823263 79.68379359329593 0.0007486741724994099
460.04483437568166 79.7066312714347 0.0007954663082448338
440.0436251716647 79.72888162190809 0.0008422584439855128
420.04234687027514 79.75051009602986 0.0008890505797162361
400.04099947151343 79.77148214511382 0.0009358427154397553
380.0395829753792 79.7917632204738 0.0009826348511876475
360.0380973818723 79.81131877342366 0.0010294269871304895
340.036542690993 79.83011425527741 0.0010762191238790563
320.03491890274205 79.84811511734932 0.0011230112628916955
300.03322601712534 79.86528681095326 0.0011698034053116587
280.03146403408783 79.88159478739824 0.0012165955408283081
260.0296329536859 79.89700449796987 0.0012633875989378409
240.0277327760193 79.91148139388265 0.0013101793044900847
220.0257635007211 79.92499092620525 0.0013569699304077395
200.02372512540646 79.93749854608751 0.001403758568045711
180.02161764081822 79.94896970635783 0.0014505484593232022
160.01944102357876 79.95936987050302 0.0014973680153036217
140.01719524441026 79.96866453042128 0.001544338478810912
120.0148804311366 79.97681927153525 0.001591806861159363
100.01249750955475 79.98379952169763 0.0016403245197334495
80.0100509575148 79.98957023220169 0.0016885834457013723
60.007552493552886 79.99408550917758 0.0017242195862200204
40.00504109495967 79.99729493524288 0.0016732617027979577
20.00252211092702 79.99901980255451 0.001444517674768231
0.0 60.0 0.0
0.0 40.0 0.0
0.0 20.0 0.0
19.997477889136803 -0.000980197445471896 80.00144451767476
39.99495890516264 -0.0027050647570631024 80.00167326170279
59.992447506634434 -0.0059144908222906935 80.00172421958622
79.98994904274639 -0.010429767798094864 80.0016885834457
99.98750249077749 -0.01620047830203018 80.00164032451973
119.98511956923684 -0.023180728464254338 80.00159180686116
139.9828047560015 -0.03133546957803792 80.00154433847881
159.98055897687132 -0.04063012949608726 80.0014973680153
179.9783823596704 -0.05103029364104374 80.00145054845932
199.97627487512048 -0.06250145391112019 80.00140375856805
219.97423649984415 -0.07500907379309775 80.0013569699304
239.9722672245842 -0.08851860611540069 80.00131017930448
259.9703670469804 -0.10299550202788432 80.00126338759893
279.96853596668785 -0.11840521259923555 80.00121659554082
299.96677398369314 -0.1347131890439863 80.0011698034053
319.96508109804375 -0.15188488264775132 80.00112301126288
339.96345730976014 -0.1698857447194995 80.00107621912386
359.96190261884806 -0.18868122657309283 80.00102942698712
379.96041702530835 -0.2082367795227939 80.00098263485117
399.9590005291414 -0.22851785488262052 80.00093584271542
419.9576531303469 -0.24948990396643853 80.0008890505797
439.95637482892477 -0.2711183780880624 80.00084225844397
459.95516562487495 -0.29336872856129276 80.00079546630822
479.95402551819757 -0.3162064066999274 80.00074867417248
499.95295450889256 -0.339596863817743 80.00070188203678
519.9519525970353 -0.3635055512285303 80.0006550899014
539.9510197826168 -0.3878979202457746 80.0006082977672
559.9501560655724 -0.41273942218264403 80.00056150563603
579.9493614459112 -0.437995508353236 80.00051471350822
599.9486359236615 -0.46363163007977565 80.00046792136469
619.9479794988827 -0.4896132387161366 80.0004211290952
639.947392171565 -0.5159057857187762 80.00037433630803
659.9468739410339 -0.5424747226546303 80.0003275420629
679.946424803483 -0.5692855009509974 80.00028074577858
699.9460447466009 -0.5963035656034252 80.00023395477214
719.9457337339426 -0.6234943317856902 80.00018723080606
739.9454916910773 -0.6508229914719322 80.00014083161525
759.9453181529576 -0.6782543551681864 80.00009594167196
779.9452111947152 -0.7057529879487568 80.00005259297407
799.9726361050683 19.266715856464426 80.00000032623404
799.9999999999999 39.26673454251024 80.00000000000082
800.0273638949315 59.266715856471116 79.9999996737676
780.0547888053173 79.2942470120509 79.99994740702752
760.0546818471078 79.32174564483113 79.99990405832956
740.0545083090208 79.34917700852704 79.99985916838622
720.0542662661882 79.37650566821294 79.99981276919534
700.0539552535627 79.40369643439487 79.99976604522921
680.0535751967133 79.43071449904697 79.99971925422271
660.053126059195 79.45752527734302 79.99967245793835
640.0526078286968 79.48409421427857 79.99962566369315
620.0520205014119 79.51038676128091 79.99957887090592
600.0513640766657 79.53636836991699 79.99953207863638
580.0506385544488 79.56200449164325 79.99948528649279
560.0498439348203 79.58726057781358 79.99943849436492
540.0489802178087 79.6121020797502 79.99939170223371
520.048047403423 79.63649444876722 79.99934491009945
500.0470454915985 79.66040313617796 79.99929811796402
480.0459744823262 79.6837935932959 79.99925132582827
460.0448343756816 79.70663127143467 79.99920453369246
440.0436251716646 79.72888162190806 79.99915774155667
420.0423468702751 79.75051009602983 79.9991109494209
400.0409994715134 79.7714821451138 79.99906415728512
380.03958297537906 79.79176322047378 79.99901736514933
360.03809738187226 79.81131877342364 79.99897057301334
340.03654269099286 79.8301142552774 79.99892378087654
320.03491890274194 79.84811511734931 79.99887698873748
300.0332260171253 79.86528681095325 79.99883019659502
280.0314640340877 79.88159478739823 79.99878340445947
260.02963295368585 79.89700449796986 79.99873661240132
240.0277327760192 79.91148139388264 79.99868982069573
220.02576350072104 79.92499092620524 79.99864303006979
200.0237251254064 79.9374985460875 79.99859624143211
180.02161764081816 79.94896970635783 79.99854945154081
160.01944102357874 79.95936987050302 79.9985026319848
140.0171952444102 79.96866453042128 79.99845566152128
120.01488043113658 79.97681927153525 79.9984081931389
100.01249750955472 79.98379952169762 79.99835967548032
80.01005095751478 79.98957023220169 79.99831141655433
60.00755249355287 79.99408550917758 79.99827578041379
40.00504109495966 79.99729493524289 79.99832673829721
20.002522110927014 79.99901980255451 79.99855548232523
0.0 60.0 80.0
0.0 40.0 80.0
0.0 20.0 80.0
0.0 0.0 20.0
0.0 0.0 40.0
0.0 0.0 60.0
799.9451459419646 -0.7333264658729399 19.999988835717193
799.9451413311718 -0.7333333333333335 40.000000000000796
[...]
POINT_DATA 1025
SCALARS CellEntityIds float 1
LOOKUP_TABLE default
5.404105221159053
0.22408256284691835
0.22408256284682654
5.404105221176179
5.404105221171114
0.2240825628471786
0.2240825628472284
5.404105221163554
5.93417797609076
6.366853347124555
6.2216169310362845
6.099093881977916
5.943202174455989
5.7777182229835375
5.6085845877459155
5.43879924769457
5.268971503051076
5.099192138883966
4.929443161656097
4.759710322829459
4.589988581216263
4.42027749065111
4.250578076714256
4.080891830066034
3.911220504896265
3.7415661506896365
3.5719311950483097
3.4023185469786066
3.232731726670606
3.063175035902294
2.893653787780229
2.724174622386937
2.554745948466052
2.3853785738913094
2.216086625791804
2.046888927575335
1.8778111222043745
1.7088890713107259
1.5401745870147052
1.3717457305703318
1.2037269455776418
1.0363294966178058
0.8699373710636862
0.7052205201198509
0.5433583194054673
0.3862183601819557
0.2665942845531421
0.29870548529871654
0.37332840775043213
0.298705485298588
0.2665942845520787
0.38621836017874
0.5433583193998857
0.7052205201120907
0.8699373710540077
1.0363294966060952
1.2037269455640773
1.3717457305551353
1.5401745869976886
1.7088890712918552
1.8778111221839429
2.0468889275536073
2.2160866257687726
2.385378573867688
2.554745948442956
2.7241746223647247
2.893653787758882
3.0631750358818617
3.232731726651058
3.402318546959794
3.5719311950301744
3.741566150672297
3.911220504879701
4.080891830050216
4.250578076700032
4.4202774906394495
4.589988581207464
4.759710322823546
4.929443161652905
5.099192138883294
5.268971503052839
5.438799247698832
5.608584587752686
5.777718222992819
5.9432021744675225
6.0990938819918705
6.2216169310530915
6.366853347145458
5.934177976111112
3.581807897845242
1.759510574506192
3.581807897828566
5.934177976104406
6.366853347139568
6.22161693105096
6.09909388199228
5.943202174469938
5.777718222997045
5.608584587758971
5.438799247707154
5.268971503063215
5.099192138895694
4.929443161667393
4.759710322840316
4.589988581226705
4.4202774906611495
4.2505780767237855
4.080891830075026
3.9112205049048776
3.7415661506977997
3.5719311950559476
3.4023185469858235
3.232731726677288
3.0631750359085386
2.8936537877860022
2.724174622391965
2.5547459484706954
2.3853785738958577
2.216086625795938
2.0468889275787547
1.8778111222071385
1.7088890713129827
1.540174587016387
1.3717457305716234
1.203726945578686
1.0363294966185546
0.8699373710644773
0.7052205201208999
0.5433583194063056
0.3862183601826066
0.26659428455366996
0.2987054852991098
0.37332840775126075
0.2987054852993544
0.26659428455241924
0.3862183601790822
0.5433583194004107
0.7052205201123322
0.8699373710535996
1.0363294966053205
1.2037269455629969
1.371745730553648
1.5401745869958225
1.7088890712897669
1.8778111221814822
2.0468889275505924
2.2160866257651124
2.385378573863335
2.5547459484383026
2.724174622359836
2.8936537877535122
3.0631750358758474
3.2327317266444022
3.4023185469526727
3.571931195022686
3.7415661506643234
3.9112205048711437
4.080891830041237
4.250578076690674
4.42027749062963
4.58998858119714
4.759710322812765
4.9294431616417
5.099192138871668
5.268971503040779
5.438799247686303
5.608584587739689
5.777718222979389
5.943202174453672
6.099093881977611
6.221616931038497
6.366853347130448
5.934177976097153
3.581807897832987
1.7595105745053394
3.581807897839686
5.207395029659593
5.010684838162113
5.2073950296676035
0.2206953739293243
0.2173081850118157
0.22069537392953986
0.2206953739294295
0.21730818501216653
0.22069537392976452
5.207395029673943
5.010684838169819
5.207395029665742
3.9576777879332927
1.981177599784799
3.9576777879524423
4.26543602561974
2.1640187041245547
4.265436025639821
4.161518930869112
2.1014209307109866
4.1615189308865626
4.078527845811923
2.0579618096542713
4.078527845827241
3.978147519174196
2.0130928639002974
3.978147519187857
3.8692554438129987
1.9607926646499019
3.8692554438250815
3.757312887485663
1.906041187232184
3.757312887495821
3.6447771484456775
1.8507550492029012
3.644777148453925
3.532237185843209
1.79550286864082
3.532237185849569
3.419776912702812
1.7403616865265297
3.4197769127073476
3.307386938598001
1.6853307155442168
3.3073869386007164
3.1950592409854597
1.630408159145109
3.1950592409861516
3.082794464654903
1.5756003480962941
3.0827944646532544
2.9705979245326715
1.5209183584158612
2.97059792452847
2.8584770782477973
1.4663760797818124
2.858477078241159
2.7464407862399502
1.41198974241371
2.7464407862318847
2.6344993220853814
1.3577781392741313
2.6344993220767323
2.522664631245507
1.3037631118007493
2.5226646312362098
2.4109506915730736
1.2499701880969603
2.4109506915631282
2.29937396259435
1.1964293782089344
2.299373962583784
2.1879539485294632
1.1431761703868417
2.1879539485182105
2.0767139134056234
1.0902527909072512
2.076713913393706
1.965681798763411
1.0377098097448278
1.9656817987509725
1.8548914117596342
0.985608201130474
1.8548914117466704
1.7443839765037714
0.9340220045389883
1.744383976489721
1.634210177120042
0.8830417803454411
1.6342101771048978
1.524432871700944
0.8327791176065947
1.524432871685939
1.415130728813292
0.7833725300479517
1.4151307287991308
1.3064031439855142
0.7349951657635031
1.3064031439721475
1.1983769543731722
0.6878648374326604
1.1983769543607785
1.0912157358044527
0.6422568845914802
1.0912157357932244
0.985132933825666
0.598520137078755
0.9851329338158226
0.880411004689111
0.5570950637989692
0.8804110046807176
0.7774298635107673
0.5185302304024029
0.777429863503586
0.6767114510223524
0.48348553097984687
0.6767114510163414
0.5789860696792603
0.45275161923773494
0.5789860696744454
0.4854732359740025
0.4275881525418962
0.4854732359705701
0.39866967296576167
0.4111209857493704
0.3986696729639565
0.3280383655702979
0.3894824465874267
0.3280383655697393
5.838294620485763
5.742411264883049
5.838294620494869
6.405969447833616
6.445085548545212
6.405969447843656
6.2741277324346605
6.326638533835479
6.274127732444441
6.12012037731775
6.141146872659974
6.1201203773273205
5.949504075916312
5.955805977378958
5.94950407592561
5.7789864980784005
5.780254773175511
5.778986498087402
5.608674651032648
5.6087647143215476
5.608674651041342
5.438727440629723
5.438655633566958
5.438727440638097
5.2689064425324394
5.268841382015822
5.268906442540528
5.099126617314549
5.099061095747073
5.099126617322355
4.92935841091789
4.929273660181555
4.929358410925411
4.759597116854109
4.759483910880581
4.75959711686136
4.589843258581322
4.589697935948129
4.5898432585882905
4.420098169585865
4.419918848522271
4.420098169592537
4.250363144448171
4.250148212183657
4.250363144454507
4.08063951997045
4.080387209876358
4.0806395199764385
3.9109287997707836
3.910637094646718
3.9109287997765056
3.741232744559822
3.740899338431355
3.741232744565252
3.5715534481089035
3.5711757011707697
3.5715534481139946
3.4018934232086537
3.401468299439891
3.401893423213452
3.2322557118900614
3.231779697110629
3.2322557118945148
3.0626440321354185
3.0621130283695823
3.06264403213958
2.8930629764832942
2.8924721651873044
2.8930629764871254
2.723518285165217
2.7228619479443337
2.7235182851685678
2.554017228481175
2.5532885084970913
2.5540172284842906
2.3845691529810678
2.3837597320715878
2.3845691529841035
2.2151862794984334
2.214285933205743
2.215186279501181
2.0458848991008938
2.0448808706270563
2.0458848991032075
1.8766872172987221
1.875563312393569
1.8766872173006037
1.7076242907535109
1.7063595101966693
1.7076242907550125
1.5387409012632696
1.5373072155120682
1.5387409012643447
1.3701040708518075
1.3684624111334545
1.3701040708526246
1.2018193930920344
1.1999118406065548
1.2018193930926844
1.0340644370914598
1.031799377565224
1.0340644370919443
0.867166509729322
0.8643956483952064
0.8671665097299662
0.7017266402776875
0.6982327604358805
0.7017266402785683
0.5388683533121177
0.5343783872189891
0.538868353312758
0.38073678665096566
0.37525521312004695
0.38073678665136235
0.2619499968781038
0.2573057092031424
0.2619499968784446
0.2909183660974442
0.28313124689629143
0.2909183660977604
0.36114135826569954
0.3489543087811719
0.36114135826631877
0.2909183660976322
0.2831312468968716
0.2909183660982106
0.2619499968770551
0.25730570920201024
0.2619499968772041
0.3807367866476459
0.37525521311643995
0.3807367866477052
0.5388683533065063
0.534378387213192
0.5388683533068339
0.7017266402698884
0.6982327604277931
0.7017266402701161
0.86716650971948
0.8643956483849081
0.8671665097192318
1.034064437079474
1.0317993775527514
1.034064437078985
1.2018193930780483
1.1999118405919467
1.2018193930774355
1.3701040708360521
1.3684624111168378
1.370104070835177
1.5387409012456534
1.5373072154933847
1.5387409012444868
1.707624290733956
1.706359510175722
1.707624290732577
1.876687217277421
1.875563312370473
1.8766872172757647
2.04588489907803
2.0448808706019435
2.0458848990760137
2.2151862794740795
2.214285933178758
2.215186279471621
2.384569152956031
2.3837597320436394
2.38456915295312
2.554017228456603
2.553288508469449
2.554017228453476
2.7235182851413495
2.722861947917164
2.723518285138095
2.8930629764600564
2.8924721651603975
2.893062976456538
3.0626440321129422
3.062113028343065
3.0626440321089774
3.2322557118683366
3.231779697084515
3.2322557118639086
3.4018934231875217
3.40146829941407
3.4018934231827815
3.5715534480882876
3.5711757011451457
3.5715534480832885
3.7412327445398357
3.74089933840599
3.7412327445344653
3.910928799751404
3.910637094621631
3.9109287997456494
4.080639519951672
4.080387209851613
4.080639519945668
4.250363144430861
4.250148212160129
4.25036314442462
4.420098169570933
4.419918848500791
4.420098169564398
4.589843258569075
4.58969793592898
4.589843258562208
4.75959711684462
4.759483910863899
4.759597116837436
4.929358410910959
4.9292736601671505
4.929358410903494
5.099126617309993
5.099061095734761
5.099126617302249
5.268906442530197
5.268841382005542
5.268906442522155
5.438727440629807
5.438655633558696
5.438727440621455
5.608674651035055
5.6087647143152575
5.60867465102639
5.7789864980830865
5.780254773171115
5.778986498074133
5.9495040759229125
5.955805977375998
5.9495040759136835
6.120120377326363
6.1411468726584895
6.1201203773168675
6.274127732446136
6.3266385338367535
6.274127732436412
6.405969447849997
6.445085548552022
6.405969447839979
5.838294620502759
5.742411264892177
5.838294620493551
3.420354234817872
3.2589005717886725
3.420354234809915
1.6333134399551623
1.5071163054041397
1.6333134399547429
3.420354234804058
3.2589005717814334
3.4203542348115006
3.957677787946504
1.9811775997844832
3.957677787938759
4.265436025634912
2.164018704124844
4.26543602562494
4.161518930883981
2.101420930711372
4.16151893087212
4.0785278458263985
2.0579618096546963
4.078527845813243
3.978147519188232
2.0130928639007517
3.9781475191743256
3.869255443826593
1.9607926646503826
3.8692554438120057
3.7573128874988098
1.9060411872326812
3.7573128874832014
3.64477714845837
1.8507550492034097
3.6447771484417686
3.532237185855456
1.7955028686413441
3.5322371858378854
3.4197769127146262
1.7403616865270528
3.4197769126961077
3.30738693860937
1.685330715544723
3.3073869385899
3.195059240996411
1.6304081591456208
3.19505924097575
3.0827944646654557
1.5756003480968448
3.0827944646433116
2.970597924542798
1.5209183584164707
2.970597924519062
2.8584770782574553
1.466376079782475
2.8584770782322497
2.7464407862491322
1.4119897424144061
2.7464407862234057
2.6344993220941606
1.357778139274846
2.634499322068696
2.5226646312538343
1.303763111801488
2.5226646312287153
2.410950691580924
1.2499701880977279
2.410950691556121
2.2993739626017535
1.196429378209698
2.2993739625771923
2.1879539485362427
1.1431761703874908
2.187953948512093
2.076713913411928
1.0902527909078852
2.0767139133881503
1.9656817987694246
1.037709809745719
1.9656817987460515
1.854891411765105
0.9856082011315129
1.854891411742309
1.7443839765086937
0.9340220045399632
1.7443839764857687
1.6342101771246584
0.8830417803464481
1.634210177101386
1.5244328717051916
0.8327791176076862
1.5244328716830196
1.4151307288170105
0.7833725300491362
1.4151307287967994
1.3064031439886863
0.7349951657648273
1.3064031439704513
1.198376954375776
0.687864837433944
1.1983769543595428
1.0912157358064825
0.6422568845926003
1.0912157357922228
0.985132933827293
0.5985201370797277
0.9851329338150703
0.8804110046904895
0.5570950637998351
0.8804110046801873
0.7774298635115683
0.5185302304027056
0.777429863503075
0.6767114510229831
0.4834855309801239
0.6767114510161794
0.5789860696804188
0.45275161923915364
0.5789860696753508
0.48547323597504927
0.427588152543588
0.48547323597189684
0.3986696729665754
0.41112098575057215
0.3986696729648411
0.32803836557096894
0.38948244658837183
0.32803836557044747
3.891335771227014
3.8249937545229713
3.891335771235856
1.944376921975271
1.9075762441657924
1.9443769219751625
3.8913357712425176
3.8249937545304338
3.891335771233517
4.310733854698174
4.356031683779165
4.310733854708317
2.2154982615698455
2.266977819015219
2.215498261570073
4.310733854713479
4.356031683784671
4.310733854703573
4.204936259576593
4.2483535882865535
4.204936259586507
2.135744786725046
2.1700686427391713
2.1357447867253048
4.20493625958885
4.248353588288734
4.204936259579224
4.094506438322426
4.110485030835333
4.094506438332067
2.068892499333022
2.0798231890118286
2.0688924993332902
4.094506438332651
4.110485030835727
4.094506438323317
3.981858514052859
3.9855695089338536
3.9818585140622087
2.014212952194992
2.015333040489741
2.0142129521952734
3.981858514061745
3.9855695089333647
3.981858514052711
3.8689050520645845
3.8685546603184306
3.868905052073641
1.9588236060559976
1.9568545474621524
1.958823606056297
3.868905052072156
3.8685546603170353
3.8689050520634227
3.7559792554250704
3.754645623366658
3.7559792554338243
1.9032838598221333
1.900526532412146
1.9032838598224453
3.7559792554309146
3.7546456233638903
3.755979255422487
3.643244449864703
3.641711751285831
3.6432444498731518
1.8477614591037426
1.8447678690046485
1.8477614591040616
3.6432444498688046
3.6417117512816444
3.6432444498606866
3.530623899474356
3.5290106131075367
3.530623899482513
1.7923413564197739
1.7891798441987907
1.7923413564200992
3.5306238994767356
3.5290106131019363
3.530623899468928
3.418069152338112
3.416361391975367
3.418069152345974
1.7370116873646475
1.7336616882028277
1.7370116873649717
3.418069152338806
3.4163613919683784
3.4180691523313
3.3055642959572396
3.303741653318361
3.305564295964807
1.6817701809990653
1.6782096464539775
1.6817701809993821
3.30556429595625
3.3037416533099693
3.305564295949028
3.1931092470673077
3.1911592531509814
3.1931092470746094
1.6266213772823785
1.622834595419714
1.6266213772827003
3.1931092470644353
3.1911592531409725
3.1931092470574884
3.080708701642286
3.0786229386314297
3.080708701649323
1.5715741447042926
1.5675479413123716
1.5715741447046485
3.0807087016372052
3.078622938619496
3.0807087016305745
2.9683688161032395
2.9661397076754854
2.968368816109981
1.5166394626206232
1.512360566825476
1.516639462621019
2.968368816095782
2.966139707661522
2.9683688160895056
2.856096607616513
2.853716136986829
2.856096607622942
1.461830070783803
1.4572840617858758
1.4618300707842167
2.8560966076068057
2.85371613697094
2.8560966076008376
2.7439000819922654
2.741359377746094
2.74390008199837
1.4071606440124698
1.4023315456112897
1.4071606440128783
2.7439000819812653
2.7413593777291814
2.743900081975562
2.631788485266676
2.6290776484494067
2.631788485272502
1.3526481707608227
1.3475182022475762
1.3526481707612423
2.6317884852552407
2.629077648432344
2.6317884852498175
2.519772588751441
2.5168805462587494
2.5197725887569793
1.2983124329411264
1.2928617540815937
1.2983124329415858
2.519772588739514
2.516880546241517
2.5197725887344653
2.407865022960086
2.404779354348407
2.4078650229653196
1.2441765978091262
1.2383830075214153
1.2441765978096333
2.407865022947636
2.4047793543309663
2.4078650229429552
2.296080689665824
2.2927874167385074
2.2960806896707355
1.1902679561206448
1.1841065340324524
1.1902679561211236
2.2960806896529085
2.292787416720925
2.2960806896485053
2.184437282650099
2.1809206167718287
2.1844372826545824
1.1366188534075858
1.1300615364283737
1.136618853407954
2.184437282636686
2.1809206167541166
2.184437282632583
2.072955953662401
2.069197993920208
2.0729559536665825
1.0832678751866809
1.0762829594661798
1.083267875187067
2.07295595364846
2.0691979939022955
2.0729559536447635
1.9616621718239038
1.957642544885382
1.961662171827896
1.030261367161783
1.0228129245788609
1.030261367162351
1.9616621718095546
1.9576425448673296
1.9616621718062865
1.850586842566917
1.84628227337509
1.850586842570543
0.9776553999658537
0.9697025988013701
0.9776553999665099
1.8505868425522203
1.8462822733570288
1.850586842549298
1.7397677779529697
1.7351515794029602
1.739767777956223
0.9255183274214565
0.9170146503040221
0.9255183274220413
1.7397677779373755
1.7351515793843322
1.7397677779347016
1.6292516471639202
1.624293117208554
1.629251647166984
0.8739341413427645
0.864826502340208
0.8739341413433883
1.6292516471473935
1.6242931171892676
1.6292516471450158
1.5190965892431598
1.5137603067860654
1.5190965892459733
0.823006898983778
0.8132346803610973
0.8230068989844597
1.5190965892268746
1.5137603067672827
1.5190965892248873
1.4093757473368065
1.403620765860952
1.409375747339297
0.7728665955688606
0.7623606610899306
0.772866595569614
1.409375747321516
1.4036207658434785
1.4093757473199275
1.3001820959840131
1.2939610479830432
1.3001820959861305
0.723676974665703
0.7123587835680851
0.7236769746665473
1.3001820959697614
1.293961047967063
1.300182095968601
1.1916350976718735
1.1848932409709818
1.1916350976735823
0.675645904586935
0.6634269717413251
0.6756459045876924
1.1916350976587948
1.184893240956539
1.1916350976579047
1.0838899795794728
1.0765642233547879
1.0838899795807828
0.6290390578926945
0.6158212311940291
0.629039057893375
1.083889979567683
1.0765642233419674
1.083889979567008
0.9771508543007175
0.9691687747759681
0.9771508543017301
0.5841976377471467
0.5698751384156033
0.5841976377476981
0.977150854290359
0.9691687747647812
0.9771508542898688
0.8716899078370923
0.8629688109852612
0.8716899078379691
0.5415604225803007
0.5260257813617306
0.5415604225808321
0.8716899078282496
0.8629688109757201
0.871689907827923
0.7678768863253248
0.7583239091399732
0.7678768863258159
0.5016893355576486
0.48484844071292277
0.5016893355578285
0.7678768863177907
0.7583239091319375
0.7678768863174773
0.6662301306577021
0.655748810293171
0.6662301306581366
0.4652937515847769
0.44710197218968295
0.46529375158489145
0.6662301306514757
0.6557488102865693
0.6662301306513538
0.5675070332777872
0.5560279968766348
0.5675070332786871
0.4332874262769101
0.4138232333163183
0.43328742627785255
0.5675070332729107
0.5560279968715202
0.5675070332735077
0.47302986021089805
0.4605864844480496
0.47302986021167753
0.4071913671090208
0.3867945816764632
0.40719136711018444
0.47302986020743476
0.46058648444450406
0.47302986020830284
0.3857587390144203
0.37284780506318704
0.3857587390149353
0.39078069137753985
0.3704403970059651
0.39078069137839655
0.38575873901242536
0.3728478050610215
0.38575873901299496
0.31768286350099384
0.30732736143179895
0.3176828635014386
0.3734157301238432
0.3573490136604778
0.37341573012453383
0.3176828635004289
0.30732736143125516
0.31768286350091957
