# vtk DataFile Version 2.0
mesh vtk view
ASCII
DATASET UNSTRUCTURED_GRID
POINTS 1025 double
0.0 0.0 0.0
795.0932351675535 -65.62023462191603 -0.001555264816016283
804.906764832457 14.379765378083945 0.0015552649628702033
0.0 80.0 0.0
0.0 0.0 80.0
795.0932351675431 -65.62023462191993 80.0015552649591
804.9067648324467 14.379765378080023 79.99844473518782
0.0 80.0 80.0
19.774308812391432 -0.08771300880510263 -0.12926272365955468
39.54889743504948 -0.24206283127064843 -0.14973189243518217
59.32416484107489 -0.5292584549893791 -0.15429186073294485
79.10058970312227 -0.9333082012598757 -0.15110295922912656
98.88165990564063 -1.4497004685361095 -0.14678450724880868
118.66842408230607 -2.07432844198379 -0.1424429025702951
138.46128293372584 -2.804055786636747 -0.1381951924178278
158.26031930488955 -3.635788812469567 -0.13399203855314953
178.0655446341351 -4.566447929608975 -0.12980238865450125
197.87695630151242 -5.5929451791443405 -0.12561539330279392
217.6945522150888 -6.712190059766881 -0.12142851013286994
237.51833154647426 -7.921091116404363 -0.11724144904144927
257.34829408230235 -9.216556743777678 -0.1130542913386708
277.1844397897617 -10.595495329344406 -0.1088671020870877
297.02676867175643 -12.054815273613036 -0.10467990590852223
316.87528073254555 -13.591424983452951 -0.10049270911203893
336.729975973957 -15.202232867823302 -0.09630551262030629
356.5908543965072 -16.884147336121252 -0.09211831633100674
376.4579160002882 -18.634076797779635 -0.08793112011367517
396.3311607853 -20.44892966220949 -0.08374392391364496
416.21058875153426 -22.32561433880826 -0.07955672771565288
436.09619989898687 -24.261039236968685 -0.07536953151689453
455.9879942276562 -26.252112766082377 -0.07118233531713729
475.8859717375403 -28.295743335540635 -0.06699513911685369
495.7901324286335 -30.388839354732923 -0.06280794292082238
515.7004763010015 -32.52830923304989 -0.05862074675271348
535.617003354644 -34.711061379854904 -0.05443355069056745
555.5397135896566 -36.93400420448298 -0.05024635489973796
575.468607006837 -39.19404611635229 -0.04605915940985887
595.403683608752 -41.4880955256081 -0.041871962512410564
615.3449434006723 -43.813060845228065 -0.03768475434415373
635.2923863817728 -46.16585049736938 -0.0334974998495303
655.2460124916671 -48.54337291407545 -0.029310114890642777
675.2058213897285 -50.94253651489414 -0.02512254745515319
695.1718119742904 -53.36024914382804 -0.020935452310195297
715.1439809840786 -55.793415976277075 -0.016754356274943403
735.1223217586196 -58.23892221461239 -0.01260232276713162
755.1067926831437 -60.693618925516546 -0.008585344336814784
775.0972215107394 -63.15433521320312 -0.00470628431397238
797.5513407342896 -45.617961802264375 -2.9192921722415583e-05
799.9999999999978 -25.616289678585304 7.345472357139964e-11
802.4486592657126 -5.617961802257668 2.9193068600118546e-05
784.9027784893038 16.845664786765916 0.004706284455617745
764.8932073169327 19.306381074421672 0.008585344473199523
744.8776782414899 21.76107778529525 0.01260232289827554
724.856019016064 24.206584023600307 0.016754356400829323
704.8281880258857 26.639750856019447 0.020935452430775933
684.794178610481 29.0574634849241 0.025122547570501686
664.7539875085762 31.45662708571433 0.029310115000806547
644.7076136185044 33.83414950239265 0.03349749995443561
624.655056599639 36.18693915450726 0.0376847544439143
604.5963163915933 38.511904474101456 0.04187196260699179
584.5313929935426 40.80595388333271 0.04605915949931733
564.4602864107572 43.06599579517874 0.05024635498411331
544.3829966458043 45.28893861978488 0.05443355076990305
524.2995236994817 47.471690766569594 0.05862074682711749
504.20986757188376 49.61116064488188 0.06280794299037762
484.11402826301054 51.704256664086245 0.06699513918165816
464.0120057729281 53.747887233556995 0.0711823353773092
443.90380010163085 55.73896076268359 0.07536953157253562
423.78941124911677 57.674385660857254 0.07955672776687119
403.66883921538437 59.55107033746957 0.08374392396056207
383.54208400042944 61.36592320191335 0.08793112015643399
363.40914560424386 63.11585266358598 0.09211831636975097
343.2700240268273 64.79776713189847 0.09630551265516832
323.1247192682719 66.40857501628366 0.10049270914318623
302.97323132909406 67.94518472613869 0.10467990593610868
282.8155602110458 69.40450467042803 0.10886710211128785
262.651705918395 70.78344325601955 0.11305429135968795
242.48166845415886 72.0789088834196 0.11724144905948454
222.30544778550438 73.28780994008375 0.12142851014813544
202.12304369904058 74.40705482073115 0.1256153933154969
181.9344553663775 75.43355207028945 0.1298023886648425
161.7396806955823 76.36421118744975 0.1339920385613522
141.53871706670532 77.19594421330133 0.13819519242412337
121.33157591808424 77.92567155797077 0.14244290257491685
101.11834009470577 78.55029953143249 0.14678450725200573
80.89941029715054 79.0666917987196 0.15110295923116876
60.67583515912132 79.47074154499875 0.15429186073417317
40.45110256507879 79.757937168724 0.14973189243599272
20.22569118767525 79.91228699119347 0.12926272366039063
0.0 60.0 0.0
0.0 40.0 0.0
0.0 20.0 0.0
19.7743088123909 -0.08771300880550573 80.12926272365966
39.54889743504841 -0.24206283127121456 80.14973189243555
59.32416484107329 -0.5292584549900673 80.15429186073388
79.10058970312014 -0.9333082012606658 80.15110295923091
98.881659905638 -1.4497004685369994 80.1467845072517
118.66842408230293 -2.0743284419847785 80.14244290257456
138.46128293372223 -2.8040557866378384 80.1381951924237
158.26031930488548 -3.635788812470763 80.13399203856086
178.0655446341306 -4.566447929610268 80.12980238866429
197.87695630150748 -5.592945179145726 80.12561539331489
217.69455221508343 -6.712190059768372 80.12142851014747
237.51833154646846 -7.921091116405942 80.11724144905877
257.34829408229615 -9.216556743779355 80.1130542913589
277.1844397897552 -10.595495329346173 80.10886710211042
297.02676867174955 -12.054815273614908 80.10467990593514
316.8752807325383 -13.591424983454917 80.1004927091421
336.7299759739494 -15.202232867825405 80.09630551265398
356.59085439649937 -16.88414733612344 80.09211831636846
376.4579160002801 -18.63407679778193 80.08793112015505
396.3311607852916 -20.448929662211885 80.08374392395906
416.21058875152556 -22.32561433881072 80.0795567277653
436.096199898978 -24.26103923697124 80.07536953157086
455.9879942276471 -26.252112766085023 80.07118233537554
475.88597173753095 -28.295743335543392 80.0669951391798
495.790132428624 -30.388839354735772 80.06280794298837
515.7004763009918 -32.528309233052845 80.05862074682499
535.6170033546342 -34.71106137985799 80.05443355076758
555.5397135896467 -36.934004204486165 80.05024635498162
575.4686070068269 -39.194046116355494 80.04605915949669
595.4036836087417 -41.48809552561144 80.0418719626042
615.344943400662 -43.8130608452315 80.03768475444097
635.2923863817625 -46.165850497372894 80.0334974999514
655.2460124916568 -48.543372914079 80.02931011499763
675.2058213897182 -50.94253651489776 80.02512254756721
695.1718119742801 -53.360249143831645 80.02093545242742
715.1439809840682 -55.79341597628064 80.01675435639736
735.1223217586091 -58.23892221461611 80.01260232289468
755.1067926831332 -60.693618925520326 80.00858534446945
775.0972215107289 -63.15433521320697 80.00470628445184
797.5513407342792 -45.617961802268255 80.0000291930667
799.9999999999874 -25.616289678589226 80.00000000007344
802.4486592657023 -5.617961802261576 79.99997080708017
784.9027784892935 16.845664786762015 79.99529371568991
764.8932073169223 19.30638107441782 79.99141465566711
744.8776782414794 21.761077785291448 79.98739767723679
724.8560190160537 24.20658402359664 79.9832456437289
704.8281880258752 26.63975085601585 79.97906454769368
684.7941786104708 29.05746348492052 79.97487745254875
664.7539875085658 31.456627085710792 79.97068988511322
644.7076136184942 33.83414950238929 79.9665025001543
624.6550565996288 36.18693915450392 79.96231524565967
604.5963163915832 38.51190447409821 79.95812803749138
584.5313929935324 40.805953883329586 79.9539408405939
564.4602864107472 43.06599579517569 79.94975364510398
544.3829966457945 45.288938619782 79.94556644931308
524.299523699472 47.47169076656684 79.94137925325086
504.2098675718743 49.61116064487928 79.93719205708267
484.1140282630012 51.70425666408376 79.93300486088653
464.01200577291894 53.74788723355464 79.92881766468612
443.903800101622 55.73896076268132 79.92463046848624
423.78941124910807 57.674385660855094 79.92044327228739
403.66883921537595 59.551070337467536 79.91625607608927
383.5420840004213 61.36592320191143 79.91206887988912
363.409145604236 63.11585266358419 79.90788168367168
343.2700240268197 64.79776713189682 79.90369448738225
323.1247192682647 66.40857501628213 79.8995072908904
302.9732313290872 67.94518472613728 79.89532009409378
282.8155602110392 69.40450467042676 79.8911328979151
262.6517059183888 70.78344325601839 79.88694570866338
242.48166845415307 72.07890888341855 79.88275855096046
222.30544778549898 73.28780994008281 79.87857148986888
202.1230436990356 74.40705482073032 79.8743846066988
181.934455366373 75.43355207028875 79.87019761134692
161.73968069557824 76.36421118744917 79.86600796144812
141.5387170667017 77.19594421330088 79.86180480758328
121.3315759180811 77.92567155797045 79.85755709743066
101.11834009470313 78.55029953143227 79.85321549275199
80.8994102971484 79.06669179871953 79.84889704077149
60.67583515911972 79.47074154499879 79.84570813926742
40.451102565077726 79.75793716872414 79.8502681075648
20.225691187674716 79.91228699119367 79.87073727633992
0.0 60.0 80.0
0.0 40.0 80.0
0.0 20.0 80.0
0.0 0.0 20.0
0.0 0.0 40.0
0.0 0.0 60.0
795.0913823559657 -65.62174902165444 19.99900096369285
795.0909697589859 -65.6223635566308 40.000000000071516
795.0913823559605 -65.62174902165644 60.00099903645022
804.9086176440396 14.37825097834552 20.000999036454033
804.9090302410143 14.377636443369212 40.00000000007537
804.9086176440345 14.37825097834353 59.99900096369667
0.0 80.0 20.0
0.0 80.0 40.0
0.0 80.0 60.0
[...]
POINT_DATA 1025
SCALARS CellEntityIds float 1
LOOKUP_TABLE default
0.0
0.24074425986738604
0.24074425986738907
0.0
0.0
0.24074425986740317
0.24074425986740053
0.0
0.001004192891813903
0.0019514360400759035
0.0031908514725120895
0.004774124164724091
0.006720027353169445
0.009033120859295677
0.011712733297831525
0.014754113334865699
0.018149960145209282
0.021891421461382028
0.02596873743662169
0.030371607228835657
0.03508939873915365
0.04011127023476055
0.04542624329606068
0.051023247976365156
0.056891151593606346
0.06301877756074192
0.06939491798467823
0.07600834227096114
0.08284780311215043
0.08990204072813242
0.0971597859169771
0.10460976228269571
0.11224068788449405
0.12004127647358906
0.1280002384319222
0.13610628149301462
0.14434811130194042
0.152714431856604
0.16119394586368405
0.16977535504461094
0.1784473603832527
0.1871986623018334
0.19601795890464727
0.20489393887711976
0.2138152187538368
0.22277030038753623
0.2317476403859368
0.2402328076846061
0.24005959638484575
0.2402328076846063
0.23174764038605278
0.22277030038776477
0.21381521875417708
0.2048939388775705
0.1960179589052072
0.1871986623025002
0.17844736038402348
0.16977535504548305
0.1611939458646537
0.1527144318576677
0.1443481113030938
0.136106281494253
0.12800023843324063
0.12004127647498156
0.11224068788590369
0.1046097622840614
0.09715978591829728
0.08990204072940562
0.08284780311337543
0.0760083422721368
0.06939491798580319
0.06301877756181495
0.05689115159462647
0.051023247977331224
0.04542624329697172
0.04011127023559618
0.03508939873989906
0.030371607229483844
0.02596873743717294
0.021891421461842926
0.018149960145586903
0.014754113335167525
0.011712733298065398
0.009033120859469897
0.0067200273532929235
0.004774124164808187
0.0031908514725647024
0.0019514360401042515
0.0010041928918256926
0.0
0.0
0.0
0.001004192891816179
0.0019514360400805235
0.0031908514725187513
0.0047741241647322715
0.006720027353178736
0.009033120859305802
0.011712733297842311
0.01475411333487703
0.01814996014522104
0.02189142146139414
0.02596873743663416
0.03037160722884839
0.03508939873916666
0.040111270234773795
0.0454262432960742
0.051023247976378895
0.056891151593620445
0.06301877756075619
0.06939491798469274
0.07600834227097587
0.08284780311216525
0.08990204072814742
0.0971597859169923
0.10460976228271114
0.11224068788450964
0.12004127647360487
0.1280002384319383
0.13610628149303095
0.14434811130195666
0.15271443185662056
0.1611939458637008
0.16977535504462785
0.17844736038326955
0.18719866230185037
0.19601795890466397
0.20489393887713617
0.21381521875385368
0.22277030038755313
0.2317476403859538
0.2402328076846217
0.24005959638486007
0.24023280768461922
0.23174764038606402
0.2227703003877757
0.21381521875418769
0.20489393887758045
0.19601795890521673
0.18719866230250948
0.17844736038403244
0.16977535504549118
0.16119394586466157
0.15271443185767508
0.14434811130310052
0.13610628149425927
0.1280002384332461
0.12004127647498643
0.11224068788590782
0.10460976228406492
0.09715978591830016
0.08990204072940798
0.08284780311337722
0.07600834227213793
0.06939491798580372
0.06301877756181487
0.056891151594625704
0.05102324797732984
0.045426243296969745
0.040111270235593556
0.03508939873989591
0.030371607229480138
0.025968737437168685
0.02189142146183818
0.018149960145581633
0.014754113335161814
0.011712733298059313
0.009033120859463539
0.006720027353286474
0.004774124164801921
0.00319085147255906
0.0019514360400998993
0.0010041928918233093
0.0
0.0
0.0
0.0
0.0
0.0
0.24075029043204435
0.24075264504170085
0.2407502904320531
0.240750290432046
0.24075264504170088
0.2407502904320518
0.0
0.0
0.0
0.0004661657966493285
6.808433831272397e-06
0.00046616579665365965
0.0011017529047283568
0.0006105713702751013
0.0011017529047410936
0.0021424489746915227
0.0016692950741433352
0.002142448974716591
0.0036179754543687226
0.0031523231060390992
0.0036179754544098048
0.0055063299306217705
0.00504725525407859
0.0055063299306828285
0.0077917928842678895
0.007339360313829196
0.007791792884354567
0.010461600765407666
0.010016356182338289
0.010461600765524406
0.013504293357733496
0.013066628011189862
0.01350429335788442
0.016908626609062866
0.016478830573736794
0.01690862660925187
0.020663372520631766
0.02024165641076346
0.020663372520862613
0.02475727925116046
0.02434380036365136
0.02475727925143664
0.029179076988252842
0.028773953872471725
0.029179076988577697
0.033917484377085826
0.03352080683565313
0.03391748437745941
0.03896121268092137
0.03857304864949431
0.03896121268134015
0.044298968115086754
0.04391936861177873
0.04429896811554329
0.0499194532811404
0.04954845601423955
0.049919453281624476
0.05581136811943776
0.0554490001547051
0.05581136811994883
0.061963410577864426
0.06160969033441279
0.06196341057840205
0.06836427709403675
0.06801921585575012
0.06836427709460025
0.0750026629486703
0.07466626602136356
0.07500266294925924
0.08186726252791161
0.08153953013392516
0.08186726252852518
0.08894676952054495
0.0886276974960974
0.08894676952118268
0.09622987706810258
0.09591945741053418
0.09622987706876376
0.10370527788053452
0.10340349917988298
0.10370527788121853
0.11136166432640544
0.11106851210678119
0.11136166432711139
0.11918772850407025
0.11890318549385703
0.11918772850476748
0.1271721622984645
0.12689620864379403
0.12717216229912448
0.1353036574271692
0.13503627085969797
0.13530365742778902
0.14357090547878382
0.14331206144634237
0.14357090547936102
0.15196259794624467
0.15171226971311944
0.1519625979467767
0.16046742625638558
0.16022558497487946
0.1604674262568704
0.16907408177883607
0.16884069652592332
0.16907408177927213
0.17777125574763175
0.1775462934406367
0.17777125574801705
0.18654763869893118
0.18633106381752612
0.18654763869926438
0.1953919187337899
0.19518369203557243
0.19539191873406925
0.20429277369387047
0.20409285640895727
0.20429277369409538
0.21323886175827303
0.2130472418706493
0.21323886175844223
0.22221877056423409
0.22203568128642856
0.22221877056434752
0.23122117239270437
0.23104689908634124
0.2312211723927616
0.000907138540388485
0.0009223120334594775
0.0009071385403896857
0.001971419598647954
0.001979255009986332
0.001971419598650335
0.003282657875249633
0.0033126709005096167
0.0032826578752529673
0.0049045940231650575
0.004946432813073096
0.00490459402316912
0.006869139591558921
0.00691745923199804
0.006869139591563539
0.009191529245536666
0.009242950258076761
0.00919152924554171
0.011875405149370681
0.011928228091400803
0.011875405149376054
0.014918012099910795
0.014971241935413748
0.014918012099916436
0.01831309997798863
0.018366101176146815
0.018313099977994497
0.02205245624875414
0.022104795537025677
0.02205245624876021
0.026126732667677028
0.026178106041739636
0.02612673266768322
0.030525900995849398
0.030576090692847013
0.03052590099585578
0.03523951302167955
0.03528836029879559
0.03523951302168607
0.04025685343165838
0.040304240594831786
0.04025685343166502
0.045567032396304996
0.045612870784692096
0.04556703239631174
0.05115904321527464
0.05120326504910002
0.05115904321528151
0.05702179914654387
0.05706435190989594
0.05702179914655089
0.06314415750373722
0.06318500000884314
0.06314415750374436
0.06951493577224933
0.06955403535667956
0.06951493577225652
0.07612292260658989
0.0761602531064765
0.07612292260659723
0.08295688547471365
0.08299242573822302
0.082956885474721
0.09000557606276949
0.09003930884547624
0.09000557606277697
0.09725773415683822
0.09728964529091268
0.09725773415684587
0.10470209047163637
0.10473216823394695
0.10470209047164408
0.11232736873990234
0.11235560336639998
0.11232736873991021
0.12012228727535451
0.1201486705842672
0.12012228727536242
0.12807556015574686
0.12810008525257735
0.12807556015575497
0.13617589812868022
0.1361985591732903
0.13617589812868836
0.14441200931279383
0.1444328013338093
0.144412009312802
0.15277259974648033
0.1527915184915005
0.15277259974648866
0.16124637382163068
0.16126341563234187
0.16124637382163903
0.16982203462951231
0.16983719633764552
0.16982203462952056
0.17848828421920723
0.17850156306799617
0.17848828421921573
0.18723382380441692
0.1872452176296525
0.18723382380442516
0.19604735334682863
0.19605686161932012
0.19604735334683687
0.204917570858196
0.20492520016172625
0.20491757085820436
0.21383315239223666
0.2138389276891899
0.21383315239224512
0.22278278890601255
0.22278678990819856
0.22278278890602102
0.2317554065218708
0.23175810263210778
0.23175540652187937
0.2402384126962702
0.2402413339426246
0.24023841269627833
0.24006470886177983
0.24006804123148362
0.24006470886178718
0.24023841269626983
0.24024133394262356
0.24023841269627655
0.23175540652198534
0.23175810263222069
0.23175540652199092
0.22278278890623932
0.22278678990842396
0.22278278890624492
0.21383315239257528
0.2138389276895268
0.21383315239258047
0.20491757085864507
0.20492520016217375
0.20491757085864998
0.1960473533473863
0.19605686161987596
0.19604735334739115
0.1872338238050813
0.18724521763031501
0.18723382380508585
0.17848828421997578
0.17850156306876264
0.17848828421998025
0.16982203463038156
0.16983719633851274
0.16982203463038595
0.16124637382259752
0.16126341563330637
0.16124637382260157
0.15277259974754098
0.15279151849255865
0.1527725997475447
0.14441200931394393
0.14443280133495684
0.14441200931394724
0.1361758981299153
0.13619855917452242
0.13617589812991832
0.12807556015706165
0.12810008525388916
0.12807556015706442
0.12012228727674343
0.12014867058565296
0.12012228727674577
0.11232736874130811
0.11235560336780258
0.11232736874131019
0.1047020904729981
0.10473216823530529
0.10470209047299983
0.09725773415815436
0.09728964529222539
0.09725773415815586
0.09000557606403857
0.09003930884674191
0.09000557606403978
0.08295688547593441
0.0829924257394403
0.08295688547593533
0.07612292260776114
0.07616025310764421
0.0761229226077617
0.06951493577336983
0.06955403535779632
0.06951493577337017
0.0631441575048058
0.06318500000990786
0.06314415750480581
0.05702179914755945
0.057064351910907564
0.057021799147559116
0.05115904321623609
0.05120326505005743
0.051159043216235434
0.04556703239721138
0.04561287078559441
0.04556703239721043
0.04025685343248933
0.04030424059565853
0.04025685343248808
0.035239513022420246
0.03528836029953202
0.03523951302241871
0.03052590099649293
0.030576090693486255
0.030525900996491145
0.026126732668223653
0.026178106042282014
0.026126732668221624
0.0220524562492105
0.022104795537477774
0.022052456249208218
0.018313099978361804
0.018366101176515742
0.018313099978359296
0.014918012100208315
0.014971241935707088
0.014918012100205585
0.011875405149600476
0.011928228091626532
0.011875405149597581
0.00919152924570712
0.009242950258243331
0.009191529245704112
0.006869139591679083
0.0069174592321146295
0.006869139591676059
0.00490459402324659
0.0049464328131515346
0.004904594023243685
0.003282657875300819
0.0033126709005583733
0.0032826578752982428
0.0019714195986760305
0.001979255010012592
0.0019714195986740646
0.0009071385403997302
0.0009223120334696138
0.0009071385403987248
0.0
0.0
0.0
0.0
0.0
0.0
0.0
0.0
0.0
0.0004661657966513645
6.8084338316744435e-06
0.000466165796651392
0.0011017529047325496
0.0006105713702758861
0.0011017529047374986
0.002142448974696875
0.001669295074144522
0.002142448974712871
0.0036179754543747534
0.003152323106040694
0.0036179754544063795
0.005506329930628304
0.005047255254080587
0.005506329930679825
0.007791792884274847
0.007339360313831605
0.00779179288435203
0.01046160076541501
0.010016356182341115
0.010461600765522362
0.013504293357741223
0.0130666280111931
0.01350429335788288
0.016908626609070908
0.016478830573740423
0.016908626609250826
0.020663372520640128
0.020241656410767497
0.020663372520862085
0.024757279251169134
0.0243438003636558
0.0247572792514366
0.029179076988261835
0.02877395387247654
0.02917907698857815
0.03391748437709509
0.03352080683565833
0.03391748437746034
0.03896121268093091
0.03857304864949987
0.03896121268134157
0.04429896811509658
0.04391936861178471
0.04429896811554523
0.04991945328115062
0.049548456014245935
0.04991945328162697
0.05581136811944832
0.05544900015471195
0.05581136811995186
0.06196341057787527
0.06160969033442004
0.06196341057840561
0.06836427709404794
0.06801921585575785
0.06836427709460435
0.07500266294868176
0.0746662660213716
0.07500266294926382
0.08186726252792333
0.08153953013393361
0.08186726252853024
0.08894676952055688
0.0886276974961063
0.08894676952118823
0.0962298770681148
0.09591945741054325
0.09622987706876973
0.10370527788054712
0.10340349917989257
0.10370527788122501
0.11136166432641831
0.11106851210679118
0.11136166432711844
0.11918772850408332
0.11890318549386755
0.11918772850477515
0.127172162298478
0.12689620864380488
0.12717216229913267
0.13530365742718303
0.13503627085970926
0.13530365742779785
0.1435709054787978
0.14331206144635397
0.14357090547937018
0.15196259794625902
0.1517122697131316
0.1519625979467865
0.16046742625640015
0.16022558497489198
0.16046742625688062
0.16907408177885094
0.1688406965259361
0.16907408177928257
0.17777125574764674
0.1775462934406497
0.1777712557480281
0.1865476386989462
0.18633106381753933
0.18654763869927554
0.1953919187338047
0.1951836920355855
0.19539191873408057
0.20429277369388532
0.20409285640897062
0.20429277369410703
0.2132388617582881
0.21304724187066296
0.21323886175845447
0.2222187705642494
0.22203568128644247
0.22221877056436
0.23122117239272005
0.23104689908635528
0.23122117239277418
0.0004119303796504577
0.00041613204741697816
0.00041193037965140593
0.00014730046659775694
0.0001770063136602723
0.00014730046659795022
0.0004119303796543377
0.0004161320474201424
0.0004119303796534981
0.0011879594769108716
0.0012172641248098669
0.0011879594769128464
0.0007955393679379458
0.0008525021826885743
0.000795539367938338
0.0011879594769225654
0.0012172641248201542
0.0011879594769210768
0.0022971854266697943
0.002346639789314114
0.0022971854266723574
0.001871620584534372
0.0019368373910173238
0.001871620584534967
0.0022971854266931025
0.0023466397893355372
0.0022971854266914706
0.0037957806216112103
0.0038542098130837656
0.0037957806216141416
0.003355752004613654
0.0034233827518668535
0.0033557520046144525
0.003795780621650099
0.003854209813120525
0.003795780621648546
0.0056903678557620185
0.005751277369487504
0.005690367855765223
0.0052464881348395775
0.005313458367348703
0.00524648813484058
0.0056903678558206895
0.0057512773695439145
0.005690367855819299
0.007975867791849183
0.008036926415574287
0.007975867791852626
0.007533081126596553
0.007598381029953459
0.00753308112659776
0.007975867791933395
0.008036926415656183
0.007975867791932208
0.01064326674242737
0.010703530387881207
0.010643266742431013
0.010204337874092128
0.010267744903934495
0.010204337874093534
0.010643266742541605
0.01070353038799311
0.010643266742540652
0.013682354640399703
0.013741413869740206
0.013682354640403524
0.013248880766919864
0.013310357176761612
0.013248880766921475
0.013682354640548088
0.013741413869886266
0.013682354640547366
0.017082399902198505
0.017140031769855395
0.017082399902202516
0.016655375457550567
0.016714924616938374
0.01665537545755239
0.017082399902384988
0.017140031770039546
0.017082399902384516
0.02083242776184676
0.020888494310679795
0.020832427761850937
0.020412503221176593
0.020470129174019278
0.020412503221178605
0.02083242776207508
0.020888494310905854
0.020832427762074848
0.02492133313549299
0.024975742443935595
0.02492133313549731
0.024508951854309832
0.02456465640487381
0.024508951854312046
0.02492133313576667
0.02497574244420701
0.024921333135766673
0.029337937076977978
0.02939062590270201
0.029337937076982443
0.028933410551167327
0.02898719418673189
0.02893341055116974
0.0293379370773003
0.029390625903022077
0.029337937077300553
0.03407101655720784
0.034121940354025396
0.034071016557212494
0.033674568701918296
0.0337264315082023
0.03367456870192088
0.03407101655757892
0.03412194035439428
0.0340710165575794
0.03910932122857285
0.039158447959356635
0.03910932122857764
0.038721115659774444
0.03877105763436848
0.03872111565977719
0.0391093212289892
0.03915844795977076
0.039109321228989906
0.044441583210902434
0.04448888937118752
0.04444158321090737
0.044061740744603305
0.04410976187909883
0.044061740744606274
0.044441583211356515
0.044488889371639535
0.04444158321135749
0.05005652301323859
0.05010199104068764
0.05005652301324368
0.049685133263001426
0.04973123355344756
0.049685133263004645
0.0500565230137203
0.05010199104116724
0.05005652301372153
0.055942853236651734
0.05598646979251275
0.055942853236656986
0.05557998251805074
0.0556241619632688
0.05557998251805418
0.05594285323716045
0.05598646979301948
0.05594285323716197
0.062089280962066506
0.06213103576782883
0.06208928096207194
0.061734977812262344
0.06177723641202077
0.061734977812265994
0.06208928096260185
0.062131035768362194
0.06208928096260366
0.0684845093335613
0.06852439436673209
0.06848450933356687
0.06813880844818265
0.06817914620247222
0.06813880844818646
0.06848450933412253
0.06852439436729141
0.06848450933412462
0.07511723863456968
0.07515524756167416
0.07511723863457542
0.07478016372842436
0.07481858063726071
0.07478016372842844
0.07511723863515635
0.07515524756225894
0.07511723863515866
0.08197616703574609
0.08201229480540054
0.08197616703575189
0.08164773295562965
0.0816842290190211
0.0816477329556339
0.08197616703635743
0.08201229480601017
0.08197616703636003
0.08904999112507545
0.0890842336712505
0.08904999112508136
0.08873020543244882
0.08876478065039826
0.08873020543245318
0.089049991125711
0.08908423367188437
0.0890499911257138
0.09632740629044884
0.09635976031295773
0.09632740629045494
0.09601627046153353
0.09604892483404265
0.09601627046153809
0.09632740629110795
0.09635976031361515
0.09632740629111096
0.10379710700034875
0.1038275698003388
0.10379710700035509
0.1034946173455359
0.10352535087260889
0.10349461734554068
0.10379710700103076
0.10382756980101898
0.10379710700103399
0.11144778701294072
0.11147635636813634
0.11144778701294718
0.11115393538711041
0.11118274806875866
0.11115393538711549
0.11144778701364459
0.11147635636883872
0.11144778701364814
0.11926813953408355
0.11929481360313979
0.11926813953409009
0.11898291388892451
0.11900980572516605
0.11898291388892972
0.11926813953477884
0.11929481360383355
0.11926813953478266
0.12724685733830984
0.12727163458671584
0.12724685733831664
0.12697024215368669
0.12699521314448706
0.12697024215369218
0.127246857338968
0.1272716345873726
0.1272468573389721
0.13537263286271706
0.13539551200471336
0.13537263286272389
0.135104609484188
0.13512765962916173
0.13510460948419353
0.13537263286333523
0.13539551200532993
0.13537263286333948
0.14363415828066467
0.14365513823289805
0.14363415828067175
0.14337470518320056
0.14339583448056945
0.14337470518320639
0.1436341582812403
0.14365513823347237
0.14363415828124484
0.15202012555974453
0.15203920540310048
0.1520201255597517
0.15176921855251074
0.1517884269970109
0.1517692185525168
0.15202012556027508
0.15203920540362972
0.15202012556027994
0.16051922650634137
0.16053640545567507
0.16051922650634873
0.16027683888836786
0.16029412647050953
0.16027683888837407
0.16051922650682485
0.16053640545615727
0.16051922650682998
0.16912015279503045
0.16913543018728588
0.1691201527950378
0.16888625546827926
0.1689016222018178
0.16888625546828565
0.16912015279546497
0.16913543018771962
0.16912015279547046
0.17781159599134758
0.17782497137657396
0.17781159599135504
0.17758615751298287
0.1775996035754463
0.1775861575129893
0.1778115959917318
0.17782497137695713
0.1778115959917372
0.18658224756726235
0.1865937211098319
0.1865822475672698
0.18636523416401818
0.18637676056780106
0.18636523416402487
0.18658224756759442
0.186593721110163
0.1865822475676
0.19542079933775405
0.1954303736473676
0.1954207993377613
0.19521217449838152
0.19522178478756555
0.19521217449838807
0.19542079933803244
0.19543037364764498
0.1954207993380382
0.2043159439528371
0.2043236278699697
0.20431594395284447
0.2041156719837463
0.20412337874707315
0.2041156719837528
0.204315943953061
0.20432362787019287
0.20431594395306668
0.21325638670198072
0.2132622103486987
0.21325638670198838
0.21306444698903867
0.2130702847687501
0.21306444698904545
0.2132563867021493