# vtk DataFile Version 2.0
mesh vtk view
ASCII
DATASET UNSTRUCTURED_GRID
POINTS 1025 double
0.0 0.0 0.0
793.0587229199538 -92.82862458710079 -0.0022001307153401094
806.9412770800611 -12.828624587100848 0.0022001309230846797
0.0 80.0 0.0
0.0 0.0 80.0
793.058722919939 -92.82862458710632 80.00220013091774
806.9412770800466 -12.82862458710639 79.99779986929008
0.0 80.0 80.0
19.68072953951303 -0.12408181733404774 -0.18285946273790682
39.36185490818593 -0.3424303466755518 -0.21181584783513596
59.043940506985564 -0.7487070826679028 -0.2182665346953856
78.72766348259307 -1.3202896505627522 -0.21375540573876461
98.4179579154534 -2.0507957847584004 -0.20764637610807102
118.11630723858298 -2.9344158447575595 -0.20150459387992983
137.82327829673204 -3.9667130640227186 -0.19549563805448827
157.53898828525058 -5.143311003005733 -0.1895497130751873
177.2634533852019 -6.459853168715141 -0.1836228912673434
196.9966698903153 -7.9119712290334645 -0.1776998246722452
216.73863484127128 -9.495293255279988 -0.17177691677332838
236.48934706620105 -11.205445969547647 -0.16585375718058692
256.248806263259 -13.038055881441606 -0.15993046091811983
276.01701238602004 -14.9887494902921 -0.1540071200256364
295.7939654386115 -17.053153313891627 -0.1480837693340072
315.5796654270584 -19.22689387903102 -0.1421604177682503
335.37411235394666 -21.505597715457373 -0.13623706663360416
355.1773062200069 -23.8848913535374 -0.13031371578532674
374.98924702536925 -26.36040132368829 -0.12439036503885767
394.80993477003364 -28.927754156296377 -0.11846701431686371
414.6393694539883 -31.58257638172879 -0.11254366359775295
434.47755107722753 -34.320494530345975 -0.10662031287755822
454.324479639749 -37.13713513250681 -0.1006969621559504
474.18015514154973 -40.028124718569714 -0.09477361143359798
494.044577582622 -42.98908981889051 -0.08885026071726101
513.9177469630272 -46.01565696382672 -0.08292691004042403
533.799663282769 -49.10345268369723 -0.07700355951348573
553.6903265420096 -52.24810350878085 -0.07108020937036108
573.589736741878 -55.44523596947402 -0.06515685965297115
593.497893886005 -58.69047659720176 -0.05923350794438573
613.4147979818468 -61.97945192739586 -0.053310140291729716
633.3404490282364 -65.3077885084738 -0.04738670710421364
653.274846939749 -68.6711129028385 -0.041463089357494695
673.2179912345222 -72.06505165521617 -0.03553921347314357
693.1698803541011 -75.48523049614705 -0.02961600570710557
713.1305096849754 -78.92727138107496 -0.023701284486505325
733.0998698050125 -82.38676801091516 -0.017827676109600843
753.0779018445378 -85.85926579707227 -0.012145121256957513
773.0643621371889 -89.3402790820923 -0.006657670492936544
796.5360429899706 -72.82540937879772 -4.129730390000257e-05
799.9999999999969 -52.82304393553457 1.039115601741752e-10
803.4639570100326 -32.82540937879101 4.129751167821652e-05
786.9356378628588 -9.340279082136107 0.006657670693312912
766.922098155543 -5.859265797159665 0.01214512144989202
746.9001301951016 -2.3867680110458167 0.01782767629512151
726.869490315172 1.072728618751583 0.023701284664587843
706.8301196460802 4.514769503637197 0.029616005877683052
686.7820087656929 7.934948344526703 0.03553921363631949
666.7251530605002 11.328887096864108 0.041463089513336125
646.6595509720471 14.69221149118954 0.04738670725261626
626.5852020184713 18.020548072229722 0.05331014043285443
606.5021061143476 21.30952340238737 0.05923350807818356
586.4102632585096 24.55476403008037 0.06515685977952214
566.3096734584129 27.751896490740613 0.07108020948972134
546.2003367176889 30.8965473157932 0.07700355962571657
526.0822530374662 33.98434303563499 0.08292691014567848
505.95542241790616 37.01091018056457 0.08885026081565622
485.8198448590123 39.97187528090246 0.0947736115252726
465.67552036084686 42.86286486698304 0.10069696224107164
445.52244892340207 45.67950546916212 0.10662031295627
425.36063054667477 48.417423617798036 0.11254366367020811
405.1900652306631 51.072245843249604 0.11846701438323426
385.010752975361 53.639598675877394 0.12439036509934576
364.822693780757 56.11510864604844 0.13031371584013565
344.62588764685063 58.49440228414903 0.13623706668292115
324.42033457377227 60.77310612059638 0.14216041781231237
304.20603456225246 62.94684668575715 0.14808376937303194
283.9829876148008 65.01125050938599 0.15400712005987074
263.75119373745133 66.96194411827156 0.15993046094785138
243.5106529344445 68.79455403020332 0.16585375720610024
223.26136515933362 70.5047067445087 0.17177691679492346
203.0033301102486 72.0880287707904 0.1776998246902153
182.73654661532075 73.54014683114116 0.18362289128197248
162.46101171523043 74.85668899688014 0.18954971308679108
142.17672170370724 76.03328693588968 0.1954956380633942
121.88369276181439 77.06558415517816 0.2015045938864679
101.58204208489893 77.94920421519717 0.20764637611259365
81.27233651768458 78.67971034940823 0.21375540574165355
60.95605949321437 79.2512929173153 0.21826653469712323
40.638145091944835 79.65756965331687 0.21181584783628257
20.319270460554847 79.87591818266392 0.18285946273908935
0.0 60.0 0.0
0.0 40.0 0.0
0.0 20.0 0.0
19.680729539512274 -0.12408181733461797 80.18285946273807
39.36185490818442 -0.3424303466763526 80.21181584783565
59.043940506983304 -0.7487070826688763 80.21826653469671
78.72766348259007 -1.32028965056387 80.21375540574128
98.41795791544968 -2.0507957847596594 80.20764637611217
118.11630723857853 -2.9344158447589574 80.20150459388596
137.82327829672693 -3.9667130640242627 80.19549563806278
157.53898828524478 -5.143311003007425 80.1895497130861
177.2634533851955 -6.45985316871697 80.18362289128119
196.99666989030828 -7.911971229035424 80.17769982468934
216.73863484126366 -9.495293255282096 80.17177691679397
236.48934706619286 -11.20544596954988 80.16585375720508
256.24880626325023 -13.038055881443977 80.15993046094674
276.0170123860108 -14.9887494902946 80.15400712005865
295.79396543860173 -17.053153313894274 80.14808376937167
315.57966542704816 -19.226893879033803 80.14216041781079
335.37411235393597 -21.50559771546035 80.13623706668125
355.1773062199958 -23.884891353540496 80.1303137158383
374.98924702535777 -26.360401323691537 80.12439036509738
394.80993477002175 -28.92775415629977 80.11846701438112
414.63936945397603 -31.582576381732267 80.11254366366796
434.47755107721497 -34.320494530349585 80.1066203129539
454.32447963973607 -37.13713513251056 80.10069696223857
474.18015514153655 -40.028124718573615 80.09477361152263
494.0445775826086 -42.98908981889454 80.08885026081282
513.9177469630134 -46.0156569638309 80.08292691014265
533.7996632827551 -49.10345268370158 80.07700355962244
553.6903265419957 -52.24810350878535 80.07108020948621
573.5897367418638 -55.44523596947856 80.06515685977581
593.4978938859907 -58.690476597206484 80.05923350807424
613.4147979818324 -61.97945192740072 80.05331014042869
633.3404490282219 -65.3077885084788 80.04738670724831
653.2748469397344 -68.67111290284353 80.04146308950885
673.2179912345076 -72.0650516552213 80.03553921363167
693.1698803540864 -75.48523049615216 80.02961600587295
713.1305096849608 -78.92727138108 80.02370128465968
733.0998698049978 -82.38676801092042 80.01782767629003
753.077901844523 -85.85926579707761 80.01214512144458
773.0643621371742 -89.34027908209775 80.00665767068797
796.536042989956 -72.82540937880322 80.00004129750899
799.9999999999823 -52.82304393554011 80.00000000010388
803.4639570100179 -32.825409378796536 79.99995870269878
786.9356378628441 -9.34027908214162 79.99334232951256
766.9220981555284 -5.859265797165108 79.9878548787486
746.900130195087 -2.3867680110512026 79.98217232389594
726.8694903151573 1.072728618746396 79.97629871551895
706.8301196460656 4.51476950363211 79.97038399429839
686.7820087656783 7.9349483445216435 79.96446078653238
666.7251530604857 11.328887096859106 79.95853691064796
646.6595509720325 14.692211491184793 79.95261329290122
626.5852020184568 18.020548072224997 79.94668985971367
606.5021061143333 21.309523402382773 79.94076649206099
586.4102632584954 24.55476403007595 79.93484314035236
566.3096734583988 27.751896490736293 79.92891979063491
546.200336717675 30.896547315789135 79.92299644049167
526.0822530374526 33.98434303563109 79.91707308996463
505.95542241789275 37.010910180560884 79.91114973928767
485.8198448589991 39.971875280898935 79.90522638857118
465.67552036083396 42.862864866979706 79.89930303784867
445.52244892338945 45.67950546915891 79.89337968712687
425.36063054666255 48.41742361779498 79.88745633640654
405.1900652306512 51.07224584324674 79.88153298568726
385.0107529753495 53.63959867587469 79.8756096349651
364.82269378074585 56.11510864604591 79.86968628421846
344.62588764683994 58.494402284146695 79.86376293337001
324.42033457376203 60.77310612059422 79.8578395822352
304.2060345622427 62.94684668575517 79.85191623066925
283.9829876147915 65.01125050938418 79.84599287997746
263.7511937374426 66.96194411826991 79.84006953908478
243.5106529344363 68.79455403020184 79.83414624282211
223.26136515932598 70.50470674450739 79.82822308322913
203.0033301102416 72.08802877078924 79.82230017533
182.73654661531435 73.54014683114019 79.81637710873467
162.46101171522463 74.85668899687931 79.81045028692661
142.17672170370213 76.03328693588904 79.80450436194708
121.88369276180995 77.06558415517769 79.79849540612142
101.5820420848952 77.94920421519687 79.79235362389305
81.27233651768158 78.67971034940811 79.7862445942621
60.95605949321211 79.25129291731535 79.78173346530512
40.63814509194333 79.65756965331707 79.78818415216483
20.31927046055409 79.87591818266422 79.81714053726135
0.0 60.0 80.0
0.0 40.0 80.0
0.0 20.0 80.0
0.0 0.0 20.0
0.0 0.0 40.0
0.0 0.0 60.0
793.0561018694149 -92.83076690868197 19.99858672912647
793.0555181956386 -92.83163625084364 40.00000000010117
793.0561018694075 -92.83076690868482 60.00141327107592
806.9438981305927 -12.830766908682037 20.00141327108132
806.9444818043617 -12.831636250843644 40.00000000010662
806.9438981305854 -12.830766908684836 59.99858672913188
0.0 80.0 20.0
0.0 80.0 40.0
0.0 80.0 60.0
[...]
POINT_DATA 1025
SCALARS CellEntityIds float 1
LOOKUP_TABLE default
0.0
0.24074425986738604
0.24074425986738907
0.0
0.0
0.24074425986740317
0.24074425986740053
0.0
0.001004192891813903
0.0019514360400759035
0.0031908514725120895
0.004774124164724091
0.006720027353169445
0.009033120859295677
0.011712733297831525
0.014754113334865699
0.018149960145209282
0.021891421461382028
0.02596873743662169
0.030371607228835657
0.03508939873915365
0.04011127023476055
0.04542624329606068
0.051023247976365156
0.056891151593606346
0.06301877756074192
0.06939491798467823
0.07600834227096114
0.08284780311215043
0.08990204072813242
0.0971597859169771
0.10460976228269571
0.11224068788449405
0.12004127647358906
0.1280002384319222
0.13610628149301462
0.14434811130194042
0.152714431856604
0.16119394586368405
0.16977535504461094
0.1784473603832527
0.1871986623018334
0.19601795890464727
0.20489393887711976
0.2138152187538368
0.22277030038753623
0.2317476403859368
0.2402328076846061
0.24005959638484575
0.2402328076846063
0.23174764038605278
0.22277030038776477
0.21381521875417708
0.2048939388775705
0.1960179589052072
0.1871986623025002
0.17844736038402348
0.16977535504548305
0.1611939458646537
0.1527144318576677
0.1443481113030938
0.136106281494253
0.12800023843324063
0.12004127647498156
0.11224068788590369
0.1046097622840614
0.09715978591829728
0.08990204072940562
0.08284780311337543
0.0760083422721368
0.06939491798580319
0.06301877756181495
0.05689115159462647
0.051023247977331224
0.04542624329697172
0.04011127023559618
0.03508939873989906
0.030371607229483844
0.02596873743717294
0.021891421461842926
0.018149960145586903
0.014754113335167525
0.011712733298065398
0.009033120859469897
0.0067200273532929235
0.004774124164808187
0.0031908514725647024
0.0019514360401042515
0.0010041928918256926
0.0
0.0
0.0
0.001004192891816179
0.0019514360400805235
0.0031908514725187513
0.0047741241647322715
0.006720027353178736
0.009033120859305802
0.011712733297842311
0.01475411333487703
0.01814996014522104
0.02189142146139414
0.02596873743663416
0.03037160722884839
0.03508939873916666
0.040111270234773795
0.0454262432960742
0.051023247976378895
0.056891151593620445
0.06301877756075619
0.06939491798469274
0.07600834227097587
0.08284780311216525
0.08990204072814742
0.0971597859169923
0.10460976228271114
0.11224068788450964
0.12004127647360487
0.1280002384319383
0.13610628149303095
0.14434811130195666
0.15271443185662056
0.1611939458637008
0.16977535504462785
0.17844736038326955
0.18719866230185037
0.19601795890466397
0.20489393887713617
0.21381521875385368
0.22277030038755313
0.2317476403859538
0.2402328076846217
0.24005959638486007
0.24023280768461922
0.23174764038606402
0.2227703003877757
0.21381521875418769
0.20489393887758045
0.19601795890521673
0.18719866230250948
0.17844736038403244
0.16977535504549118
0.16119394586466157
0.15271443185767508
0.14434811130310052
0.13610628149425927
0.1280002384332461
0.12004127647498643
0.11224068788590782
0.10460976228406492
0.09715978591830016
0.08990204072940798
0.08284780311337722
0.07600834227213793
0.06939491798580372
0.06301877756181487
0.056891151594625704
0.05102324797732984
0.045426243296969745
0.040111270235593556
0.03508939873989591
0.030371607229480138
0.025968737437168685
0.02189142146183818
0.018149960145581633
0.014754113335161814
0.011712733298059313
0.009033120859463539
0.006720027353286474
0.004774124164801921
0.00319085147255906
0.0019514360400998993
0.0010041928918233093
0.0
0.0
0.0
0.0
0.0
0.0
0.24075029043204435
0.24075264504170085
0.2407502904320531
0.240750290432046
0.24075264504170088
0.2407502904320518
0.0
0.0
0.0
0.0004661657966493285
6.808433831272397e-06
0.00046616579665365965
0.0011017529047283568
0.0006105713702751013
0.0011017529047410936
0.0021424489746915227
0.0016692950741433352
0.002142448974716591
0.0036179754543687226
0.0031523231060390992
0.0036179754544098048
0.0055063299306217705
0.00504725525407859
0.0055063299306828285
0.0077917928842678895
0.007339360313829196
0.007791792884354567
0.010461600765407666
0.010016356182338289
0.010461600765524406
0.013504293357733496
0.013066628011189862
0.01350429335788442
0.016908626609062866
0.016478830573736794
0.01690862660925187
0.020663372520631766
0.02024165641076346
0.020663372520862613
0.02475727925116046
0.02434380036365136
0.02475727925143664
0.029179076988252842
0.028773953872471725
0.029179076988577697
0.033917484377085826
0.03352080683565313
0.03391748437745941
0.03896121268092137
0.03857304864949431
0.03896121268134015
0.044298968115086754
0.04391936861177873
0.04429896811554329
0.0499194532811404
0.04954845601423955
0.049919453281624476
0.05581136811943776
0.0554490001547051
0.05581136811994883
0.061963410577864426
0.06160969033441279
0.06196341057840205
0.06836427709403675
0.06801921585575012
0.06836427709460025
0.0750026629486703
0.07466626602136356
0.07500266294925924
0.08186726252791161
0.08153953013392516
0.08186726252852518
0.08894676952054495
0.0886276974960974
0.08894676952118268
0.09622987706810258
0.09591945741053418
0.09622987706876376
0.10370527788053452
0.10340349917988298
0.10370527788121853
0.11136166432640544
0.11106851210678119
0.11136166432711139
0.11918772850407025
0.11890318549385703
0.11918772850476748
0.1271721622984645
0.12689620864379403
0.12717216229912448
0.1353036574271692
0.13503627085969797
0.13530365742778902
0.14357090547878382
0.14331206144634237
0.14357090547936102
0.15196259794624467
0.15171226971311944
0.1519625979467767
0.16046742625638558
0.16022558497487946
0.1604674262568704
0.16907408177883607
0.16884069652592332
0.16907408177927213
0.17777125574763175
0.1775462934406367
0.17777125574801705
0.18654763869893118
0.18633106381752612
0.18654763869926438
0.1953919187337899
0.19518369203557243
0.19539191873406925
0.20429277369387047
0.20409285640895727
0.20429277369409538
0.21323886175827303
0.2130472418706493
0.21323886175844223
0.22221877056423409
0.22203568128642856
0.22221877056434752
0.23122117239270437
0.23104689908634124
0.2312211723927616
0.000907138540388485
0.0009223120334594775
0.0009071385403896857
0.001971419598647954
0.001979255009986332
0.001971419598650335
0.003282657875249633
0.0033126709005096167
0.0032826578752529673
0.0049045940231650575
0.004946432813073096
0.00490459402316912
0.006869139591558921
0.00691745923199804
0.006869139591563539
0.009191529245536666
0.009242950258076761
0.00919152924554171
0.011875405149370681
0.011928228091400803
0.011875405149376054
0.014918012099910795
0.014971241935413748
0.014918012099916436
0.01831309997798863
0.018366101176146815
0.018313099977994497
0.02205245624875414
0.022104795537025677
0.02205245624876021
0.026126732667677028
0.026178106041739636
0.02612673266768322
0.030525900995849398
0.030576090692847013
0.03052590099585578
0.03523951302167955
0.03528836029879559
0.03523951302168607
0.04025685343165838
0.040304240594831786
0.04025685343166502
0.045567032396304996
0.045612870784692096
0.04556703239631174
0.05115904321527464
0.05120326504910002
0.05115904321528151
0.05702179914654387
0.05706435190989594
0.05702179914655089
0.06314415750373722
0.06318500000884314
0.06314415750374436
0.06951493577224933
0.06955403535667956
0.06951493577225652
0.07612292260658989
0.0761602531064765
0.07612292260659723
0.08295688547471365
0.08299242573822302
0.082956885474721
0.09000557606276949
0.09003930884547624
0.09000557606277697
0.09725773415683822
0.09728964529091268
0.09725773415684587
0.10470209047163637
0.10473216823394695
0.10470209047164408
0.11232736873990234
0.11235560336639998
0.11232736873991021
0.12012228727535451
0.1201486705842672
0.12012228727536242
0.12807556015574686
0.12810008525257735
0.12807556015575497
0.13617589812868022
0.1361985591732903
0.13617589812868836
0.14441200931279383
0.1444328013338093
0.144412009312802
0.15277259974648033
0.1527915184915005
0.15277259974648866
0.16124637382163068
0.16126341563234187
0.16124637382163903
0.16982203462951231
0.16983719633764552
0.16982203462952056
0.17848828421920723
0.17850156306799617
0.17848828421921573
0.18723382380441692
0.1872452176296525
0.18723382380442516
0.19604735334682863
0.19605686161932012
0.19604735334683687
0.204917570858196
0.20492520016172625
0.20491757085820436
0.21383315239223666
0.2138389276891899
0.21383315239224512
0.22278278890601255
0.22278678990819856
0.22278278890602102
0.2317554065218708
0.23175810263210778
0.23175540652187937
0.2402384126962702
0.2402413339426246
0.24023841269627833
0.24006470886177983
0.24006804123148362
0.24006470886178718
0.24023841269626983
0.24024133394262356
0.24023841269627655
0.23175540652198534
0.23175810263222069
0.23175540652199092
0.22278278890623932
0.22278678990842396
0.22278278890624492
0.21383315239257528
0.2138389276895268
0.21383315239258047
0.20491757085864507
0.20492520016217375
0.20491757085864998
0.1960473533473863
0.19605686161987596
0.19604735334739115
0.1872338238050813
0.18724521763031501
0.18723382380508585
0.17848828421997578
0.17850156306876264
0.17848828421998025
0.16982203463038156
0.16983719633851274
0.16982203463038595
0.16124637382259752
0.16126341563330637
0.16124637382260157
0.15277259974754098
0.15279151849255865
0.1527725997475447
0.14441200931394393
0.14443280133495684
0.14441200931394724
0.1361758981299153
0.13619855917452242
0.13617589812991832
0.12807556015706165
0.12810008525388916
0.12807556015706442
0.12012228727674343
0.12014867058565296
0.12012228727674577
0.11232736874130811
0.11235560336780258
0.11232736874131019
0.1047020904729981
0.10473216823530529
0.10470209047299983
0.09725773415815436
0.09728964529222539
0.09725773415815586
0.09000557606403857
0.09003930884674191
0.09000557606403978
0.08295688547593441
0.0829924257394403
0.08295688547593533
0.07612292260776114
0.07616025310764421
0.0761229226077617
0.06951493577336983
0.06955403535779632
0.06951493577337017
0.0631441575048058
0.06318500000990786
0.06314415750480581
0.05702179914755945
0.057064351910907564
0.057021799147559116
0.05115904321623609
0.05120326505005743
0.051159043216235434
0.04556703239721138
0.04561287078559441
0.04556703239721043
0.04025685343248933
0.04030424059565853
0.04025685343248808
0.035239513022420246
0.03528836029953202
0.03523951302241871
0.03052590099649293
0.030576090693486255
0.030525900996491145
0.026126732668223653
0.026178106042282014
0.026126732668221624
0.0220524562492105
0.022104795537477774
0.022052456249208218
0.018313099978361804
0.018366101176515742
0.018313099978359296
0.014918012100208315
0.014971241935707088
0.014918012100205585
0.011875405149600476
0.011928228091626532
0.011875405149597581
0.00919152924570712
0.009242950258243331
0.009191529245704112
0.006869139591679083
0.0069174592321146295
0.006869139591676059
0.00490459402324659
0.0049464328131515346
0.004904594023243685
0.003282657875300819
0.0033126709005583733
0.0032826578752982428
0.0019714195986760305
0.001979255010012592
0.0019714195986740646
0.0009071385403997302
0.0009223120334696138
0.0009071385403987248
0.0
0.0
0.0
0.0
0.0
0.0
0.0
0.0
0.0
0.0004661657966513645
6.8084338316744435e-06
0.000466165796651392
0.0011017529047325496
0.0006105713702758861
0.0011017529047374986
0.002142448974696875
0.001669295074144522
0.002142448974712871
0.0036179754543747534
0.003152323106040694
0.0036179754544063795
0.005506329930628304
0.005047255254080587
0.005506329930679825
0.007791792884274847
0.007339360313831605
0.00779179288435203
0.01046160076541501
0.010016356182341115
0.010461600765522362
0.013504293357741223
0.0130666280111931
0.01350429335788288
0.016908626609070908
0.016478830573740423
0.016908626609250826
0.020663372520640128
0.020241656410767497
0.020663372520862085
0.024757279251169134
0.0243438003636558
0.0247572792514366
0.029179076988261835
0.02877395387247654
0.02917907698857815
0.03391748437709509
0.03352080683565833
0.03391748437746034
0.03896121268093091
0.03857304864949987
0.03896121268134157
0.04429896811509658
0.04391936861178471
0.04429896811554523
0.04991945328115062
0.049548456014245935
0.04991945328162697
0.05581136811944832
0.05544900015471195
0.05581136811995186
0.06196341057787527
0.06160969033442004
0.06196341057840561
0.06836427709404794
0.06801921585575785
0.06836427709460435
0.07500266294868176
0.0746662660213716
0.07500266294926382
0.08186726252792333
0.08153953013393361
0.08186726252853024
0.08894676952055688
0.0886276974961063
0.08894676952118823
0.0962298770681148
0.09591945741054325
0.09622987706876973
0.10370527788054712
0.10340349917989257
0.10370527788122501
0.11136166432641831
0.11106851210679118
0.11136166432711844
0.11918772850408332
0.11890318549386755
0.11918772850477515
0.127172162298478
0.12689620864380488
0.12717216229913267
0.13530365742718303
0.13503627085970926
0.13530365742779785
0.1435709054787978
0.14331206144635397
0.14357090547937018
0.15196259794625902
0.1517122697131316
0.1519625979467865
0.16046742625640015
0.16022558497489198
0.16046742625688062
0.16907408177885094
0.1688406965259361
0.16907408177928257
0.17777125574764674
0.1775462934406497
0.1777712557480281
0.1865476386989462
0.18633106381753933
0.18654763869927554
0.1953919187338047
0.1951836920355855
0.19539191873408057
0.20429277369388532
0.20409285640897062
0.20429277369410703
0.2132388617582881
0.21304724187066296
0.21323886175845447
0.2222187705642494
0.22203568128644247
0.22221877056436
0.23122117239272005
0.23104689908635528
0.23122117239277418
0.0004119303796504577
0.00041613204741697816
0.00041193037965140593
0.00014730046659775694
0.0001770063136602723
0.00014730046659795022
0.0004119303796543377
0.0004161320474201424
0.0004119303796534981
0.0011879594769108716
0.0012172641248098669
0.0011879594769128464
0.0007955393679379458
0.0008525021826885743
0.000795539367938338
0.0011879594769225654
0.0012172641248201542
0.0011879594769210768
0.0022971854266697943
0.002346639789314114
0.0022971854266723574
0.001871620584534372
0.0019368373910173238
0.001871620584534967
0.0022971854266931025
0.0023466397893355372
0.0022971854266914706
0.0037957806216112103
0.0038542098130837656
0.0037957806216141416
0.003355752004613654
0.0034233827518668535
0.0033557520046144525
0.003795780621650099
0.003854209813120525
0.003795780621648546
0.0056903678557620185
0.005751277369487504
0.005690367855765223
0.0052464881348395775
0.005313458367348703
0.00524648813484058
0.0056903678558206895
0.0057512773695439145
0.005690367855819299
0.007975867791849183
0.008036926415574287
0.007975867791852626
0.007533081126596553
0.007598381029953459
0.00753308112659776
0.007975867791933395
0.008036926415656183
0.007975867791932208
0.01064326674242737
0.010703530387881207
0.010643266742431013
0.010204337874092128
0.010267744903934495
0.010204337874093534
0.010643266742541605
0.01070353038799311
0.010643266742540652
0.013682354640399703
0.013741413869740206
0.013682354640403524
0.013248880766919864
0.013310357176761612
0.013248880766921475
0.013682354640548088
0.013741413869886266
0.013682354640547366
0.017082399902198505
0.017140031769855395
0.017082399902202516
0.016655375457550567
0.016714924616938374
0.01665537545755239
0.017082399902384988
0.017140031770039546
0.017082399902384516
0.02083242776184676
0.020888494310679795
0.020832427761850937
0.020412503221176593
0.020470129174019278
0.020412503221178605
0.02083242776207508
0.020888494310905854
0.020832427762074848
0.02492133313549299
0.024975742443935595
0.02492133313549731
0.024508951854309832
0.02456465640487381
0.024508951854312046
0.02492133313576667
0.02497574244420701
0.024921333135766673
0.029337937076977978
0.02939062590270201
0.029337937076982443
0.028933410551167327
0.02898719418673189
0.02893341055116974
0.0293379370773003
0.029390625903022077
0.029337937077300553
0.03407101655720784
0.034121940354025396
0.034071016557212494
0.033674568701918296
0.0337264315082023
0.03367456870192088
0.03407101655757892
0.03412194035439428
0.0340710165575794
0.03910932122857285
0.039158447959356635
0.03910932122857764
0.038721115659774444
0.03877105763436848
0.03872111565977719
0.0391093212289892
0.03915844795977076
0.039109321228989906
0.044441583210902434
0.04448888937118752
0.04444158321090737
0.044061740744603305
0.04410976187909883
0.044061740744606274
0.044441583211356515
0.044488889371639535
0.04444158321135749
0.05005652301323859
0.05010199104068764
0.05005652301324368
0.049685133263001426
0.04973123355344756
0.049685133263004645
0.0500565230137203
0.05010199104116724
0.05005652301372153
0.055942853236651734
0.05598646979251275
0.055942853236656986
0.05557998251805074
0.0556241619632688
0.05557998251805418
0.05594285323716045
0.05598646979301948
0.05594285323716197
0.062089280962066506
0.06213103576782883
0.06208928096207194
0.061734977812262344
0.06177723641202077
0.061734977812265994
0.06208928096260185
0.062131035768362194
0.06208928096260366
0.0684845093335613
0.06852439436673209
0.06848450933356687
0.06813880844818265
0.06817914620247222
0.06813880844818646
0.06848450933412253
0.06852439436729141
0.06848450933412462
0.07511723863456968
0.07515524756167416
0.07511723863457542
0.07478016372842436
0.07481858063726071
0.07478016372842844
0.07511723863515635
0.07515524756225894
0.07511723863515866
0.08197616703574609
0.08201229480540054
0.08197616703575189
0.08164773295562965
0.0816842290190211
0.0816477329556339
0.08197616703635743
0.08201229480601017
0.08197616703636003
0.08904999112507545
0.0890842336712505
0.08904999112508136
0.08873020543244882
0.08876478065039826
0.08873020543245318
0.089049991125711
0.08908423367188437
0.0890499911257138
0.09632740629044884
0.09635976031295773
0.09632740629045494
0.09601627046153353
0.09604892483404265
0.09601627046153809
0.09632740629110795
0.09635976031361515
0.09632740629111096
0.10379710700034875
0.1038275698003388
0.10379710700035509
0.1034946173455359
0.10352535087260889
0.10349461734554068
0.10379710700103076
0.10382756980101898
0.10379710700103399
0.11144778701294072
0.11147635636813634
0.11144778701294718
0.11115393538711041
0.11118274806875866
0.11115393538711549
0.11144778701364459
0.11147635636883872
0.11144778701364814
0.11926813953408355
0.11929481360313979
0.11926813953409009
0.11898291388892451
0.11900980572516605
0.11898291388892972
0.11926813953477884
0.11929481360383355
0.11926813953478266
0.12724685733830984
0.12727163458671584
0.12724685733831664
0.12697024215368669
0.12699521314448706
0.12697024215369218
0.127246857338968
0.1272716345873726
0.1272468573389721
0.13537263286271706
0.13539551200471336
0.13537263286272389
0.135104609484188
0.13512765962916173
0.13510460948419353
0.13537263286333523
0.13539551200532993
0.13537263286333948
0.14363415828066467
0.14365513823289805
0.14363415828067175
0.14337470518320056
0.14339583448056945
0.14337470518320639
0.1436341582812403
0.14365513823347237
0.14363415828124484
0.15202012555974453
0.15203920540310048
0.1520201255597517
0.15176921855251074
0.1517884269970109
0.1517692185525168
0.15202012556027508
0.15203920540362972
0.15202012556027994
0.16051922650634137
0.16053640545567507
0.16051922650634873
0.16027683888836786
0.16029412647050953
0.16027683888837407
0.16051922650682485
0.16053640545615727
0.16051922650682998
0.16912015279503045
0.16913543018728588
0.1691201527950378
0.16888625546827926
0.1689016222018178
0.16888625546828565
0.16912015279546497
0.16913543018771962
0.16912015279547046
0.17781159599134758
0.17782497137657396
0.17781159599135504
0.17758615751298287
0.1775996035754463
0.1775861575129893
0.1778115959917318
0.17782497137695713
0.1778115959917372
0.18658224756726235
0.1865937211098319
0.1865822475672698
0.18636523416401818
0.18637676056780106
0.18636523416402487
0.18658224756759442
0.186593721110163
0.1865822475676
0.19542079933775405
0.1954303736473676
0.1954207993377613
0.19521217449838152
0.19522178478756555
0.19521217449838807
0.19542079933803244
0.19543037364764498
0.1954207993380382
0.2043159439528371
0.2043236278699697
0.20431594395284447
0.2041156719837463
0.20412337874707315
0.2041156719837528
0.204315943953061
0.20432362787019287
0.20431594395306668
0.21325638670198072
0.2132622103486987
0.21325638670198838
0.21306444698903867
0.2130702847687501
0.21306444698904545
0.2132563867021493