# vtk DataFile Version 2.0
mesh vtk view
ASCII
DATASET UNSTRUCTURED_GRID
POINTS 1025 double
0.0 0.0 0.0
794.016140448236 -80.02467636819031 -0.0018966644097759557
805.9838595517768 -0.024676368190355902 0.0018966645888661025
0.0 80.0 0.0
0.0 0.0 80.0
794.0161404482233 -80.02467636819507 80.00189666458425
805.9838595517642 -0.02467636819513075 79.99810333559489
0.0 80.0 80.0
19.724766844396985 -0.1069670839086618 -0.15763746787750582
39.449874920827604 -0.29519857472030314 -0.182599868823393
59.17581078185113 -0.6454371402309503 -0.18816080577188407
78.90315817460682 -1.1381807332437515 -0.18427190149893494
98.63617061671799 -1.7679274006537928 -0.17900549664488874
118.37612692974679 -2.5296688316875504 -0.1737108567930429
138.12351577296442 -3.4195802276057905 -0.1685307224607657
157.8784381768454 -4.433888795694596 -0.1634049250648166
177.64090809058223 -5.568838938547533 -0.15829559592012357
197.41092231911395 -6.820664852615053 -0.15318950402779755
217.18847831130304 -8.185597633862054 -0.1480835489425244
236.97357505691784 -9.659867215127278 -0.14297737687981626
256.76621229574994 -11.239703346070346 -0.1378710869983791
276.56638998778084 -12.921335767493185 -0.13276475864278997
296.37410813656203 -14.700994236113466 -0.12765842183966133
316.18936674728764 -16.574908516406047 -0.12255208428297437
336.01216582218683 -18.53930837539428 -0.11744574709793457
355.84250536188944 -20.590423580635683 -0.11233941015976438
375.6803853665076 -22.724483899731275 -0.10723307330936002
395.52580583604134 -24.93771910025549 -0.10212673648005488
415.3787667704805 -27.226358949766187 -0.09702039965323526
435.2392681698202 -29.586633215815485 -0.09191406282548119
455.10731003405823 -32.014771665954136 -0.08680772599650893
474.9828923631923 -34.5070040677325 -0.08170138916689479
494.86601515721566 -37.059560188698704 -0.07659505234246636
514.7566784161914 -39.66866979640233 -0.07148871555208966
534.6548821401219 -42.33056265835966 -0.06638237889093594
554.5606263291377 -45.04146854205244 -0.06127604256065608
574.4739109842117 -47.79761721506379 -0.056169706597388895
594.3947361084741 -50.59523844586357 -0.05106336891757388
614.323101708353 -53.430562006375716 -0.04595701749287043
634.2590077828418 -56.29981767971878 -0.04085060957259795
654.2024542582986 -59.199235261067656 -0.03574404254956438
674.1534407193251 -62.125044530358736 -0.030637252994089276
694.1119658224255 -65.07347456564399 -0.025531039402677206
714.0780255904358 -68.04075119058184 -0.02043214179871148
734.0516119008277 -71.02307587147855 -0.015368686301380033
754.0326740038818 -74.01660844575193 -0.010469932118066816
774.0210018423891 -77.01748196732092 -0.005739371114600467
797.0138301637678 -60.02190463689968 -3.560112405172634e-05
799.9999999999974 -40.01986546167609 8.957893118463376e-11
802.9861698362349 -20.02190463689297 3.5601303170876296e-05
785.9789981576564 2.982518032641309 0.005739371287338716
765.967325996197 5.9833915541727265 0.01046993228438967
745.9483880992843 8.976924128408797 0.015368686461311641
725.9219744097094 11.95924880926863 0.020432141952230892
705.8880341777533 14.926525434170017 0.02553103954972676
685.8465592808873 17.874955469419596 0.03063725313475817
665.7975457419477 20.800764738675973 0.03574404268391044
645.7409922174387 23.700182319991008 0.04085060970053125
625.676898291962 26.569437993301506 0.045957017614529666
605.605263891875 29.40476155378223 0.05106336903291684
585.5260890161721 32.202382784552064 0.05616970670648458
565.4393736712808 34.958531457535024 0.061276042663552854
545.3451178603315 37.669437341201046 0.06638237898768667
525.2433215842971 40.33133020313363 0.07148871564282624
505.1339848433074 42.94043981083154 0.07659505242728983
485.0171076373644 45.49299593181247 0.08170138924592463
464.89268996653215 47.985228333606074 0.0868077260698893
444.7607318308039 50.41336678376046 0.09191406289333617
424.62123323017687 52.773641049825905 0.09702039971569662
404.4741941646496 55.06228089935311 0.10212673653727088
384.31961463421675 57.27551609989431 0.10723307336150492
364.15749463886846 59.40957641900729 0.11233941020701345
343.9878341786043 61.46069162426642 0.11744574714044922
323.8106332535368 63.42509148327275 0.12255208432095889
303.62589186429557 65.29900576358375 0.12765842187330334
283.43361001303373 67.0786642322293 0.13276475867230234
263.23378770495424 68.76029665368237 0.13787108702400977
243.02642494372185 70.34013278465804 0.1429773769018105
222.8115216892963 71.81440236595577 0.14808354896114087
202.58907768144482 73.1793351472331 0.15318950404328902
182.3590919099357 74.4311610613286 0.15829559593273484
162.1215618236313 75.566111204207 0.16340492507481985
141.87648422747105 76.58041977231869 0.16853072246844322
121.62387307064726 77.47033116825703 0.17371085679867918
101.36382938363157 78.2320725993079 0.17900549664878757
81.09684182566856 78.86181926673123 0.18427190150142542
60.82418921834705 79.35456285975457 0.18816080577338204
40.55012507930199 79.70480142527316 0.18259986882438148
20.275233155670332 79.8930329160896 0.15763746787852526
0.0 60.0 0.0
0.0 40.0 0.0
0.0 20.0 0.0
19.724766844396335 -0.10696708390915338 80.15763746787765
39.449874920826296 -0.29519857472099353 80.18259986882384
59.17581078184918 -0.6454371402317897 80.18816080577302
78.90315817460421 -1.1381807332447151 80.1842719015011
98.63617061671476 -1.7679274006548782 80.17900549664841
118.37612692974295 -2.5296688316887557 80.17371085679824
138.12351577296002 -3.419580227607122 80.16853072246792
157.8784381768404 -4.433888795696054 80.16340492507422
177.64090809057672 -5.56883893854911 80.15829559593206
197.4109223191079 -6.820664852616742 80.15318950404254
217.18847831129648 -8.185597633863873 80.14808354896033
236.9735750569108 -9.659867215129204 80.14297737690093
256.76621229574243 -11.23970334607239 80.13787108702306
276.5663899877729 -12.921335767495341 80.13276475867124
296.3741081365536 -14.700994236115749 80.12765842187213
316.18936674727877 -16.574908516408446 80.12255208431965
336.0121658221776 -18.539308375396846 80.117445747139
355.84250536187983 -20.59042358063835 80.11233941020544
375.68038536649766 -22.724483899734075 80.10723307335981
395.5258058360311 -24.937719100258413 80.10212673653545
415.37876677046995 -27.226358949769185 80.09702039971377
435.23926816980935 -29.586633215818598 80.09191406289128
455.10731003404715 -32.01477166595736 80.08680772606773
474.982892363181 -34.50700406773586 80.08170138924365
494.8660151572041 -37.05956018870218 80.07659505242485
514.7566784161797 -39.668669796405936 80.07148871564021
534.65488214011 -42.33056265836342 80.06638237898487
554.5606263291255 -45.04146854205632 80.06127604266052
574.4739109841994 -47.7976172150677 80.05616970670329
594.3947361084618 -50.59523844586764 80.05106336902952
614.3231017083405 -53.43056200637991 80.04595701761095
634.2590077828293 -56.29981767972308 80.04085060969682
654.2024542582861 -59.19923526107198 80.03574404268004
674.1534407193126 -62.12504453036316 80.03063725313075
694.1119658224129 -65.07347456564838 80.02553103954564
714.0780255904231 -68.04075119058619 80.02043214194799
734.0516119008149 -71.0230758714831 80.01536868645692
754.032674003869 -74.01660844575653 80.01046993227982
774.0210018423763 -77.01748196732562 80.00573937128274
797.0138301637551 -60.02190463690441 80.00003560130085
799.9999999999847 -40.019865461680865 80.00000000008956
802.9861698362223 -20.02190463689773 79.99996439887826
785.9789981576438 2.9825180326365626 79.99426062889013
765.9673259961843 5.983391554168037 79.98953006788673
745.9483880992716 8.976924128404164 79.98463131370339
725.9219744096968 11.959248809264153 79.97956785820598
705.8880341777407 14.92652543416564 79.97446896060205
685.8465592808748 17.874955469415234 79.96936274701068
665.7975457419352 20.800764738671667 79.96425595745514
645.7409922174262 23.700182319986908 79.95914939043207
625.6768982919494 26.569437993297434 79.9540429825118
605.6052638918627 29.404761553778272 79.94893663108705
585.5260890161599 32.20238278454825 79.9438302934072
565.4393736712688 34.95853145753131 79.93872395744388
545.3451178603195 37.66943734119754 79.93361762111351
525.2433215842852 40.331330203130264 79.92851128445227
505.1339848432958 42.94043981082836 79.92340494766178
485.01710763735304 45.49299593180944 79.91829861083723
464.892689966521 47.9852283336032 79.91319227400747
444.760731830793 50.413366783757695 79.90808593717834
424.62123323016635 52.77364104982327 79.90297960035046
404.47419416463936 55.06228089935065 79.89787326352351
384.3196146342068 57.27551609989197 79.89276692669405
364.15749463885885 59.409576419005106 79.88766058984349
343.9878341785951 61.4606916242644 79.88255425290518
323.810633253528 63.42509148327089 79.87744791572
303.62589186428715 65.29900576358204 79.87234157816314
283.43361001302577 67.07866423222775 79.86723524135988
263.2337877049467 68.76029665368095 79.86212891300413
243.02642494371477 70.34013278465676 79.85702262312252
222.81152168928975 71.81440236595465 79.85191645105961
202.58907768143877 73.17933514723211 79.84681049597414
182.35909190993016 74.43116106132774 79.84170440408161
162.12156182362634 75.56611120420631 79.83659507493674
141.87648422746662 76.58041977231814 79.83146927754059
121.62387307064344 77.47033116825664 79.82628914320811
101.36382938362834 78.23207259930766 79.82099450335608
81.09684182566598 78.86181926673113 79.81572809850181
60.824189218345104 79.35456285975461 79.81183919422855
40.55012507930069 79.70480142527333 79.81740013117658
20.275233155669678 79.89303291608985 79.84236253212185
0.0 60.0 80.0
0.0 40.0 80.0
0.0 20.0 80.0
0.0 0.0 20.0
0.0 0.0 40.0
0.0 0.0 60.0
794.0138809219094 -80.0265231971396 19.99878166304006
794.0133777548608 -80.0272726300376 40.00000000008721
794.013880921903 -80.02652319714205 60.00121833713441
805.9861190780971 -0.02652319713965312 20.001218337139065
805.9866222451393 -0.02727263003758651 40.00000000009191
805.9861190780908 -0.026523197142068966 59.998781663044724
0.0 80.0 20.0
0.0 80.0 40.0
[...]
POINT_DATA 1025
SCALARS CellEntityIds float 1
LOOKUP_TABLE default
0.0
0.24074425986738604
0.24074425986738907
0.0
0.0
0.24074425986740317
0.24074425986740053
0.0
0.001004192891813903
0.0019514360400759035
0.0031908514725120895
0.004774124164724091
0.006720027353169445
0.009033120859295677
0.011712733297831525
0.014754113334865699
0.018149960145209282
0.021891421461382028
0.02596873743662169
0.030371607228835657
0.03508939873915365
0.04011127023476055
0.04542624329606068
0.051023247976365156
0.056891151593606346
0.06301877756074192
0.06939491798467823
0.07600834227096114
0.08284780311215043
0.08990204072813242
0.0971597859169771
0.10460976228269571
0.11224068788449405
0.12004127647358906
0.1280002384319222
0.13610628149301462
0.14434811130194042
0.152714431856604
0.16119394586368405
0.16977535504461094
0.1784473603832527
0.1871986623018334
0.19601795890464727
0.20489393887711976
0.2138152187538368
0.22277030038753623
0.2317476403859368
0.2402328076846061
0.24005959638484575
0.2402328076846063
0.23174764038605278
0.22277030038776477
0.21381521875417708
0.2048939388775705
0.1960179589052072
0.1871986623025002
0.17844736038402348
0.16977535504548305
0.1611939458646537
0.1527144318576677
0.1443481113030938
0.136106281494253
0.12800023843324063
0.12004127647498156
0.11224068788590369
0.1046097622840614
0.09715978591829728
0.08990204072940562
0.08284780311337543
0.0760083422721368
0.06939491798580319
0.06301877756181495
0.05689115159462647
0.051023247977331224
0.04542624329697172
0.04011127023559618
0.03508939873989906
0.030371607229483844
0.02596873743717294
0.021891421461842926
0.018149960145586903
0.014754113335167525
0.011712733298065398
0.009033120859469897
0.0067200273532929235
0.004774124164808187
0.0031908514725647024
0.0019514360401042515
0.0010041928918256926
0.0
0.0
0.0
0.001004192891816179
0.0019514360400805235
0.0031908514725187513
0.0047741241647322715
0.006720027353178736
0.009033120859305802
0.011712733297842311
0.01475411333487703
0.01814996014522104
0.02189142146139414
0.02596873743663416
0.03037160722884839
0.03508939873916666
0.040111270234773795
0.0454262432960742
0.051023247976378895
0.056891151593620445
0.06301877756075619
0.06939491798469274
0.07600834227097587
0.08284780311216525
0.08990204072814742
0.0971597859169923
0.10460976228271114
0.11224068788450964
0.12004127647360487
0.1280002384319383
0.13610628149303095
0.14434811130195666
0.15271443185662056
0.1611939458637008
0.16977535504462785
0.17844736038326955
0.18719866230185037
0.19601795890466397
0.20489393887713617
0.21381521875385368
0.22277030038755313
0.2317476403859538
0.2402328076846217
0.24005959638486007
0.24023280768461922
0.23174764038606402
0.2227703003877757
0.21381521875418769
0.20489393887758045
0.19601795890521673
0.18719866230250948
0.17844736038403244
0.16977535504549118
0.16119394586466157
0.15271443185767508
0.14434811130310052
0.13610628149425927
0.1280002384332461
0.12004127647498643
0.11224068788590782
0.10460976228406492
0.09715978591830016
0.08990204072940798
0.08284780311337722
0.07600834227213793
0.06939491798580372
0.06301877756181487
0.056891151594625704
0.05102324797732984
0.045426243296969745
0.040111270235593556
0.03508939873989591
0.030371607229480138
0.025968737437168685
0.02189142146183818
0.018149960145581633
0.014754113335161814
0.011712733298059313
0.009033120859463539
0.006720027353286474
0.004774124164801921
0.00319085147255906
0.0019514360400998993
0.0010041928918233093
0.0
0.0
0.0
0.0
0.0
0.0
0.24075029043204435
0.24075264504170085
0.2407502904320531
0.240750290432046
0.24075264504170088
0.2407502904320518
0.0
0.0
0.0
0.0004661657966493285
6.808433831272397e-06
0.00046616579665365965
0.0011017529047283568
0.0006105713702751013
0.0011017529047410936
0.0021424489746915227
0.0016692950741433352
0.002142448974716591
0.0036179754543687226
0.0031523231060390992
0.0036179754544098048
0.0055063299306217705
0.00504725525407859
0.0055063299306828285
0.0077917928842678895
0.007339360313829196
0.007791792884354567
0.010461600765407666
0.010016356182338289
0.010461600765524406
0.013504293357733496
0.013066628011189862
0.01350429335788442
0.016908626609062866
0.016478830573736794
0.01690862660925187
0.020663372520631766
0.02024165641076346
0.020663372520862613
0.02475727925116046
0.02434380036365136
0.02475727925143664
0.029179076988252842
0.028773953872471725
0.029179076988577697
0.033917484377085826
0.03352080683565313
0.03391748437745941
0.03896121268092137
0.03857304864949431
0.03896121268134015
0.044298968115086754
0.04391936861177873
0.04429896811554329
0.0499194532811404
0.04954845601423955
0.049919453281624476
0.05581136811943776
0.0554490001547051
0.05581136811994883
0.061963410577864426
0.06160969033441279
0.06196341057840205
0.06836427709403675
0.06801921585575012
0.06836427709460025
0.0750026629486703
0.07466626602136356
0.07500266294925924
0.08186726252791161
0.08153953013392516
0.08186726252852518
0.08894676952054495
0.0886276974960974
0.08894676952118268
0.09622987706810258
0.09591945741053418
0.09622987706876376
0.10370527788053452
0.10340349917988298
0.10370527788121853
0.11136166432640544
0.11106851210678119
0.11136166432711139
0.11918772850407025
0.11890318549385703
0.11918772850476748
0.1271721622984645
0.12689620864379403
0.12717216229912448
0.1353036574271692
0.13503627085969797
0.13530365742778902
0.14357090547878382
0.14331206144634237
0.14357090547936102
0.15196259794624467
0.15171226971311944
0.1519625979467767
0.16046742625638558
0.16022558497487946
0.1604674262568704
0.16907408177883607
0.16884069652592332
0.16907408177927213
0.17777125574763175
0.1775462934406367
0.17777125574801705
0.18654763869893118
0.18633106381752612
0.18654763869926438
0.1953919187337899
0.19518369203557243
0.19539191873406925
0.20429277369387047
0.20409285640895727
0.20429277369409538
0.21323886175827303
0.2130472418706493
0.21323886175844223
0.22221877056423409
0.22203568128642856
0.22221877056434752
0.23122117239270437
0.23104689908634124
0.2312211723927616
0.000907138540388485
0.0009223120334594775
0.0009071385403896857
0.001971419598647954
0.001979255009986332
0.001971419598650335
0.003282657875249633
0.0033126709005096167
0.0032826578752529673
0.0049045940231650575
0.004946432813073096
0.00490459402316912
0.006869139591558921
0.00691745923199804
0.006869139591563539
0.009191529245536666
0.009242950258076761
0.00919152924554171
0.011875405149370681
0.011928228091400803
0.011875405149376054
0.014918012099910795
0.014971241935413748
0.014918012099916436
0.01831309997798863
0.018366101176146815
0.018313099977994497
0.02205245624875414
0.022104795537025677
0.02205245624876021
0.026126732667677028
0.026178106041739636
0.02612673266768322
0.030525900995849398
0.030576090692847013
0.03052590099585578
0.03523951302167955
0.03528836029879559
0.03523951302168607
0.04025685343165838
0.040304240594831786
0.04025685343166502
0.045567032396304996
0.045612870784692096
0.04556703239631174
0.05115904321527464
0.05120326504910002
0.05115904321528151
0.05702179914654387
0.05706435190989594
0.05702179914655089
0.06314415750373722
0.06318500000884314
0.06314415750374436
0.06951493577224933
0.06955403535667956
0.06951493577225652
0.07612292260658989
0.0761602531064765
0.07612292260659723
0.08295688547471365
0.08299242573822302
0.082956885474721
0.09000557606276949
0.09003930884547624
0.09000557606277697
0.09725773415683822
0.09728964529091268
0.09725773415684587
0.10470209047163637
0.10473216823394695
0.10470209047164408
0.11232736873990234
0.11235560336639998
0.11232736873991021
0.12012228727535451
0.1201486705842672
0.12012228727536242
0.12807556015574686
0.12810008525257735
0.12807556015575497
0.13617589812868022
0.1361985591732903
0.13617589812868836
0.14441200931279383
0.1444328013338093
0.144412009312802
0.15277259974648033
0.1527915184915005
0.15277259974648866
0.16124637382163068
0.16126341563234187
0.16124637382163903
0.16982203462951231
0.16983719633764552
0.16982203462952056
0.17848828421920723
0.17850156306799617
0.17848828421921573
0.18723382380441692
0.1872452176296525
0.18723382380442516
0.19604735334682863
0.19605686161932012
0.19604735334683687
0.204917570858196
0.20492520016172625
0.20491757085820436
0.21383315239223666
0.2138389276891899
0.21383315239224512
0.22278278890601255
0.22278678990819856
0.22278278890602102
0.2317554065218708
0.23175810263210778
0.23175540652187937
0.2402384126962702
0.2402413339426246
0.24023841269627833
0.24006470886177983
0.24006804123148362
0.24006470886178718
0.24023841269626983
0.24024133394262356
0.24023841269627655
0.23175540652198534
0.23175810263222069
0.23175540652199092
0.22278278890623932
0.22278678990842396
0.22278278890624492
0.21383315239257528
0.2138389276895268
0.21383315239258047
0.20491757085864507
0.20492520016217375
0.20491757085864998
0.1960473533473863
0.19605686161987596
0.19604735334739115
0.1872338238050813
0.18724521763031501
0.18723382380508585
0.17848828421997578
0.17850156306876264
0.17848828421998025
0.16982203463038156
0.16983719633851274
0.16982203463038595
0.16124637382259752
0.16126341563330637
0.16124637382260157
0.15277259974754098
0.15279151849255865
0.1527725997475447
0.14441200931394393
0.14443280133495684
0.14441200931394724
0.1361758981299153
0.13619855917452242
0.13617589812991832
0.12807556015706165
0.12810008525388916
0.12807556015706442
0.12012228727674343
0.12014867058565296
0.12012228727674577
0.11232736874130811
0.11235560336780258
0.11232736874131019
0.1047020904729981
0.10473216823530529
0.10470209047299983
0.09725773415815436
0.09728964529222539
0.09725773415815586
0.09000557606403857
0.09003930884674191
0.09000557606403978
0.08295688547593441
0.0829924257394403
0.08295688547593533
0.07612292260776114
0.07616025310764421
0.0761229226077617
0.06951493577336983
0.06955403535779632
0.06951493577337017
0.0631441575048058
0.06318500000990786
0.06314415750480581
0.05702179914755945
0.057064351910907564
0.057021799147559116
0.05115904321623609
0.05120326505005743
0.051159043216235434
0.04556703239721138
0.04561287078559441
0.04556703239721043
0.04025685343248933
0.04030424059565853
0.04025685343248808
0.035239513022420246
0.03528836029953202
0.03523951302241871
0.03052590099649293
0.030576090693486255
0.030525900996491145
0.026126732668223653
0.026178106042282014
0.026126732668221624
0.0220524562492105
0.022104795537477774
0.022052456249208218
0.018313099978361804
0.018366101176515742
0.018313099978359296
0.014918012100208315
0.014971241935707088
0.014918012100205585
0.011875405149600476
0.011928228091626532
0.011875405149597581
0.00919152924570712
0.009242950258243331
0.009191529245704112
0.006869139591679083
0.0069174592321146295
0.006869139591676059
0.00490459402324659
0.0049464328131515346
0.004904594023243685
0.003282657875300819
0.0033126709005583733
0.0032826578752982428
0.0019714195986760305
0.001979255010012592
0.0019714195986740646
0.0009071385403997302
0.0009223120334696138
0.0009071385403987248
0.0
0.0
0.0
0.0
0.0
0.0
0.0
0.0
0.0
0.0004661657966513645
6.8084338316744435e-06
0.000466165796651392
0.0011017529047325496
0.0006105713702758861
0.0011017529047374986
0.002142448974696875
0.001669295074144522
0.002142448974712871
0.0036179754543747534
0.003152323106040694
0.0036179754544063795
0.005506329930628304
0.005047255254080587
0.005506329930679825
0.007791792884274847
0.007339360313831605
0.00779179288435203
0.01046160076541501
0.010016356182341115
0.010461600765522362
0.013504293357741223
0.0130666280111931
0.01350429335788288
0.016908626609070908
0.016478830573740423
0.016908626609250826
0.020663372520640128
0.020241656410767497
0.020663372520862085
0.024757279251169134
0.0243438003636558
0.0247572792514366
0.029179076988261835
0.02877395387247654
0.02917907698857815
0.03391748437709509
0.03352080683565833
0.03391748437746034
0.03896121268093091
0.03857304864949987
0.03896121268134157
0.04429896811509658
0.04391936861178471
0.04429896811554523
0.04991945328115062
0.049548456014245935
0.04991945328162697
0.05581136811944832
0.05544900015471195
0.05581136811995186
0.06196341057787527
0.06160969033442004
0.06196341057840561
0.06836427709404794
0.06801921585575785
0.06836427709460435
0.07500266294868176
0.0746662660213716
0.07500266294926382
0.08186726252792333
0.08153953013393361
0.08186726252853024
0.08894676952055688
0.0886276974961063
0.08894676952118823
0.0962298770681148
0.09591945741054325
0.09622987706876973
0.10370527788054712
0.10340349917989257
0.10370527788122501
0.11136166432641831
0.11106851210679118
0.11136166432711844
0.11918772850408332
0.11890318549386755
0.11918772850477515
0.127172162298478
0.12689620864380488
0.12717216229913267
0.13530365742718303
0.13503627085970926
0.13530365742779785
0.1435709054787978
0.14331206144635397
0.14357090547937018
0.15196259794625902
0.1517122697131316
0.1519625979467865
0.16046742625640015
0.16022558497489198
0.16046742625688062
0.16907408177885094
0.1688406965259361
0.16907408177928257
0.17777125574764674
0.1775462934406497
0.1777712557480281
0.1865476386989462
0.18633106381753933
0.18654763869927554
0.1953919187338047
0.1951836920355855
0.19539191873408057
0.20429277369388532
0.20409285640897062
0.20429277369410703
0.2132388617582881
0.21304724187066296
0.21323886175845447
0.2222187705642494
0.22203568128644247
0.22221877056436
0.23122117239272005
0.23104689908635528
0.23122117239277418
0.0004119303796504577
0.00041613204741697816
0.00041193037965140593
0.00014730046659775694
0.0001770063136602723
0.00014730046659795022
0.0004119303796543377
0.0004161320474201424
0.0004119303796534981
0.0011879594769108716
0.0012172641248098669
0.0011879594769128464
0.0007955393679379458
0.0008525021826885743
0.000795539367938338
0.0011879594769225654
0.0012172641248201542
0.0011879594769210768
0.0022971854266697943
0.002346639789314114
0.0022971854266723574
0.001871620584534372
0.0019368373910173238
0.001871620584534967
0.0022971854266931025
0.0023466397893355372
0.0022971854266914706
0.0037957806216112103
0.0038542098130837656
0.0037957806216141416
0.003355752004613654
0.0034233827518668535
0.0033557520046144525
0.003795780621650099
0.003854209813120525
0.003795780621648546
0.0056903678557620185
0.005751277369487504
0.005690367855765223
0.0052464881348395775
0.005313458367348703
0.00524648813484058
0.0056903678558206895
0.0057512773695439145
0.005690367855819299
0.007975867791849183
0.008036926415574287
0.007975867791852626
0.007533081126596553
0.007598381029953459
0.00753308112659776
0.007975867791933395
0.008036926415656183
0.007975867791932208
0.01064326674242737
0.010703530387881207
0.010643266742431013
0.010204337874092128
0.010267744903934495
0.010204337874093534
0.010643266742541605
0.01070353038799311
0.010643266742540652
0.013682354640399703
0.013741413869740206
0.013682354640403524
0.013248880766919864
0.013310357176761612
0.013248880766921475
0.013682354640548088
0.013741413869886266
0.013682354640547366
0.017082399902198505
0.017140031769855395
0.017082399902202516
0.016655375457550567
0.016714924616938374
0.01665537545755239
0.017082399902384988
0.017140031770039546
0.017082399902384516
0.02083242776184676
0.020888494310679795
0.020832427761850937
0.020412503221176593
0.020470129174019278
0.020412503221178605
0.02083242776207508
0.020888494310905854
0.020832427762074848
0.02492133313549299
0.024975742443935595
0.02492133313549731
0.024508951854309832
0.02456465640487381
0.024508951854312046
0.02492133313576667
0.02497574244420701
0.024921333135766673
0.029337937076977978
0.02939062590270201
0.029337937076982443
0.028933410551167327
0.02898719418673189
0.02893341055116974
0.0293379370773003
0.029390625903022077
0.029337937077300553
0.03407101655720784
0.034121940354025396
0.034071016557212494
0.033674568701918296
0.0337264315082023
0.03367456870192088
0.03407101655757892
0.03412194035439428
0.0340710165575794
0.03910932122857285
0.039158447959356635
0.03910932122857764
0.038721115659774444
0.03877105763436848
0.03872111565977719
0.0391093212289892
0.03915844795977076
0.039109321228989906
0.044441583210902434
0.04448888937118752
0.04444158321090737
0.044061740744603305
0.04410976187909883
0.044061740744606274
0.044441583211356515
0.044488889371639535
0.04444158321135749
0.05005652301323859
0.05010199104068764
0.05005652301324368
0.049685133263001426
0.04973123355344756
0.049685133263004645
0.0500565230137203
0.05010199104116724
0.05005652301372153
0.055942853236651734
0.05598646979251275
0.055942853236656986
0.05557998251805074
0.0556241619632688
0.05557998251805418
0.05594285323716045
0.05598646979301948
0.05594285323716197
0.062089280962066506
0.06213103576782883
0.06208928096207194
0.061734977812262344
0.06177723641202077
0.061734977812265994
0.06208928096260185
0.062131035768362194
0.06208928096260366
0.0684845093335613
0.06852439436673209
0.06848450933356687
0.06813880844818265
0.06817914620247222
0.06813880844818646
0.06848450933412253
0.06852439436729141
0.06848450933412462
0.07511723863456968
0.07515524756167416
0.07511723863457542
0.07478016372842436
0.07481858063726071
0.07478016372842844
0.07511723863515635
0.07515524756225894
0.07511723863515866
0.08197616703574609
0.08201229480540054
0.08197616703575189
0.08164773295562965
0.0816842290190211
0.0816477329556339
0.08197616703635743
0.08201229480601017
0.08197616703636003
0.08904999112507545
0.0890842336712505
0.08904999112508136
0.08873020543244882
0.08876478065039826
0.08873020543245318
0.089049991125711
0.08908423367188437
0.0890499911257138
0.09632740629044884
0.09635976031295773
0.09632740629045494
0.09601627046153353
0.09604892483404265
0.09601627046153809
0.09632740629110795
0.09635976031361515
0.09632740629111096
0.10379710700034875
0.1038275698003388
0.10379710700035509
0.1034946173455359
0.10352535087260889
0.10349461734554068
0.10379710700103076
0.10382756980101898
0.10379710700103399
0.11144778701294072
0.11147635636813634
0.11144778701294718
0.11115393538711041
0.11118274806875866
0.11115393538711549
0.11144778701364459
0.11147635636883872
0.11144778701364814
0.11926813953408355
0.11929481360313979
0.11926813953409009
0.11898291388892451
0.11900980572516605
0.11898291388892972
0.11926813953477884
0.11929481360383355
0.11926813953478266
0.12724685733830984
0.12727163458671584
0.12724685733831664
0.12697024215368669
0.12699521314448706
0.12697024215369218
0.127246857338968
0.1272716345873726
0.1272468573389721
0.13537263286271706
0.13539551200471336
0.13537263286272389
0.135104609484188
0.13512765962916173
0.13510460948419353
0.13537263286333523
0.13539551200532993
0.13537263286333948
0.14363415828066467
0.14365513823289805
0.14363415828067175
0.14337470518320056
0.14339583448056945
0.14337470518320639
0.1436341582812403
0.14365513823347237
0.14363415828124484
0.15202012555974453
0.15203920540310048
0.1520201255597517
0.15176921855251074
0.1517884269970109
0.1517692185525168
0.15202012556027508
0.15203920540362972
0.15202012556027994
0.16051922650634137
0.16053640545567507
0.16051922650634873
0.16027683888836786
0.16029412647050953
0.16027683888837407
0.16051922650682485
0.16053640545615727
0.16051922650682998
0.16912015279503045
0.16913543018728588
0.1691201527950378
0.16888625546827926
0.1689016222018178
0.16888625546828565
0.16912015279546497
0.16913543018771962
0.16912015279547046
0.17781159599134758
0.17782497137657396
0.17781159599135504
0.17758615751298287
0.1775996035754463
0.1775861575129893
0.1778115959917318
0.17782497137695713
0.1778115959917372
0.18658224756726235
0.1865937211098319
0.1865822475672698
0.18636523416401818
0.18637676056780106
0.18636523416402487
0.18658224756759442
0.186593721110163
0.1865822475676
0.19542079933775405
0.1954303736473676
0.1954207993377613
0.19521217449838152
0.19522178478756555
0.19521217449838807
0.19542079933803244
0.19543037364764498
0.1954207993380382
0.2043159439528371
0.2043236278699697
0.20431594395284447
0.2041156719837463
0.20412337874707315
0.2041156719837528
0.204315943953061
0.20432362787019287
0.20431594395306668
0.21325638670198072
0.2132622103486987
0.21325638670198838
0.21306444698903867
0.2130702847687501
0.21306444698904545
0.2132563867021493