# vtk DataFile Version 2.0
mesh vtk view
ASCII
DATASET UNSTRUCTURED_GRID
POINTS 1025 double
0.0 0.0 0.0
796.1703298868711 -51.21579287564177 -0.0012138652222566109
803.8296701131371 28.784207124358204 0.0012138653368743049
0.0 80.0 0.0
0.0 0.0 80.0
796.1703298868629 -51.215792875644816 80.00121386533392
803.8296701131292 28.78420712435515 79.99878613478073
0.0 80.0 80.0
19.82385078038588 -0.06845893370154352 -0.10088797944160366
39.64791994927136 -0.18892708782099388 -0.11686391604697144
59.47251890029865 -0.41307976974780797 -0.12042291569400572
79.29802123163772 -0.7284356692760005 -0.11793401695931828
99.12714919456329 -1.1314735364184267 -0.11456351785272871
118.96072123486536 -1.618988052280031 -0.11117494834754739
138.79905009448728 -2.1885313456677045 -0.10785966237488998
158.64220043293372 -2.8376888292445397 -0.10457915204148255
178.490181177688 -3.5640569206704193 -0.10130918138887901
198.34299028391092 -4.365225505673631 -0.09804128257779036
218.20062611887457 -5.238782485671711 -0.09477347132321556
238.06308803603065 -6.182315017681454 -0.09150552120308235
257.9303758688547 -7.193410141485017 -0.08823749567896257
277.80248959174264 -8.269654891195634 -0.08496944553138552
297.67942920695083 -9.408636311112613 -0.0817013899773832
317.5611947178034 -10.607941450499863 -0.07843333394110355
337.44778612572713 -11.865157360252333 -0.07516527814267808
357.33920343112504 -13.177871091606828 -0.07189722250224916
377.23544663406886 -14.543669695828008 -0.06862916691799037
397.1365157345587 -15.960140224163503 -0.06536111134723509
417.042410732588 -17.42486972785035 -0.062093055778070526
436.9531316281536 -18.9354452581219 -0.05882500020830792
456.8686784212542 -20.489453866210635 -0.055556944637765684
476.78905111188817 -22.084482603348786 -0.05228888906681263
496.71424970005137 -23.718118520767156 -0.04902083349917844
516.6442741858114 -25.387948669697476 -0.04575277795333735
536.5791245691661 -27.09156010135017 -0.042484722490198974
556.5188008501756 -28.826539866913546 -0.03921666723881986
576.4633030294623 -30.590475017640806 -0.03594861222232887
596.4126311090297 -32.38095260535266 -0.032680556107247266
616.3667850929916 -34.195559684080436 -0.029412491195437054
636.3257649807038 -36.031883315019996 -0.02614439012646267
656.2895707250354 -37.887510567083275 -0.022876187231721187
676.2582020601318 -39.760028499429566 -0.019607841916217124
696.2316581261555 -41.64702372201212 -0.0163398652177134
716.2099363777213 -43.54608076197235 -0.013076570751175338
736.1930316164115 -45.45476855774625 -0.009835959232883214
756.1809113624056 -47.37062940528121 -0.0067007565555627585
776.1734411790897 -49.291188459085355 -0.0036731975133442963
798.0888513048114 -31.214018967629112 -2.2784719393104844e-05
799.9999999999983 -11.212713895494566 5.7330515958165565e-11
801.9111486951904 8.785981032377585 2.2784834029360817e-05
783.8265588209513 30.708811540890473 0.003673197623896776
763.8190886376684 32.629370594670576 0.0067007566620093835
743.8069683836954 34.54523144218166 0.009835959335239444
723.7900636224186 36.453919237931956 0.013076570849427763
703.7683418740179 38.35297627786884 0.016339865311825116
683.7417979400749 40.23997150042857 0.019607842006245216
663.7104292752047 42.112489432752646 0.02287618731770267
643.6742350195701 43.96811668479427 0.02614439020833998
623.6332149073161 45.80444031571299 0.029412491273298966
603.5873688913116 47.61904739442065 0.03268055618106676
583.5366969709129 49.40952498211334 0.03594861229215011
563.4811991502336 51.173460132822434 0.039216667304673804
543.4208754312772 52.908439898368684 0.04248472255211944
523.3557258146664 54.61205133000554 0.04575277801140877
503.28575030046017 56.2818814789322 0.049020833553465454
483.2109488886567 57.91551739636 0.052288889117391726
463.131321579324 59.5105461335079 0.055556944684729125
443.0468683724579 61.064554741606706 0.058825000251735114
422.9575892680566 62.57513027188859 0.0620930558180458
402.8634842661192 64.03985977558601 0.06536111138385331
382.76455336664213 65.45633030393236 0.0686291669513631
362.66079656961927 66.82212890816467 0.07189722253248856
342.5522138750502 68.13484263953052 0.07516527816988745
322.438805283007 69.39205854929456 0.07843333396541363
302.3205707938926 70.5913636886936 0.08170138999891409
282.1975104090578 71.73034510862675 0.08496944555027343
262.0696241318358 72.80658985835673 0.0882374956953662
241.93691196459588 73.81768498218115 0.09150552121715866
221.79937388171243 74.7612175142117 0.09477347133513009
201.6570097166363 75.63477449422919 0.09804128258770489
181.5098188228193 76.43594307925031 0.10130918139695023
161.35779956753333 77.16231117069249 0.10457915204788464
141.20094990593958 77.81146865428396 0.1078596623798036
121.03927876552122 78.3810119476845 0.1111749483511546
100.87285080577998 78.86852646355706 0.11456351785522396
80.70197876863251 79.27156433070799 0.1179340169609122
60.527481099895596 79.58692023024292 0.12042291569496442
40.35208005085559 79.81107291217482 0.11686391604760406
20.17614921968017 79.93154106629734 0.1008879794422561
0.0 60.0 0.0
0.0 40.0 0.0
0.0 20.0 0.0
19.823850780385463 -0.06845893370185813 80.1008879794417
39.64791994927052 -0.18892708782143575 80.11686391604725
59.4725189002974 -0.41307976974834515 80.12042291569473
79.29802123163606 -0.7284356692766172 80.1179340169607
99.12714919456123 -1.1314735364191213 80.11456351785499
118.9607212348629 -1.6189880522808024 80.11117494835086
138.79905009448444 -2.1885313456685567 80.10785966237947
158.64220043293054 -2.837688829245473 80.1045791520475
178.49018117768446 -3.564056920671428 80.10130918139652
198.34299028390703 -4.3652255056747125 80.09804128258723
218.20062611887036 -5.238782485672875 80.0947734713346
238.06308803602616 -6.182315017682686 80.09150552121659
257.93037586884986 -7.193410141486325 80.08823749569476
277.8024895917375 -8.269654891197012 80.0849694455496
297.67942920694543 -9.408636311114073 80.08170138999816
317.5611947177978 -10.607941450501398 80.07843333396457
337.4477861257213 -11.865157360253974 80.07516527816897
357.3392034311189 -13.177871091608537 80.07189722253148
377.2354466340625 -14.543669695829799 80.06862916695027
397.1365157345521 -15.960140224165373 80.06536111138269
417.04241073258123 -17.42486972785227 80.0620930558168
436.95313162814665 -18.93544525812389 80.05882500025042
456.86867842124707 -20.4894538662127 80.05555694468335
476.7890511118809 -22.08448260335094 80.05228888911593
496.714249700044 -23.71811852076938 80.04902083355191
516.6442741858037 -25.38794866969978 80.04575277800974
536.5791245691585 -27.09156010135257 80.04248472255031
556.5188008501677 -28.826539866916026 80.03921666730274
576.4633030294544 -30.59047501764331 80.0359486122901
596.4126311090218 -32.38095260535527 80.03268055617889
616.3667850929836 -34.19555968408312 80.029412491271
636.3257649806957 -36.031883315022746 80.02614439020597
656.2895707250275 -37.887510567086046 80.02287618731522
676.2582020601237 -39.760028499432394 80.01960784200368
696.2316581261474 -41.647023722014936 80.0163398653092
716.2099363777132 -43.546080761975134 80.01307657084672
736.1930316164035 -45.454768557749155 80.00983595933243
756.1809113623974 -47.370629405284156 80.00670075665909
776.1734411790815 -49.29118845908837 80.00367319762096
798.0888513048033 -31.214018967632146 80.00002278483255
799.9999999999902 -11.212713895497622 80.00000000005731
801.9111486951823 8.785981032374536 79.99997721528209
783.8265588209432 30.70881154088743 79.99632680248969
763.8190886376602 32.62937059466757 79.99329924344751
743.8069683836874 34.5452314421787 79.99016404077017
723.7900636224106 36.453919237929085 79.98692342925183
703.7683418740098 38.352976277866034 79.98366013478531
683.7417979400668 40.239971500425774 79.98039215808683
663.7104292751966 42.11248943274989 79.9771238127713
643.674235019562 43.968116684791646 79.97385560987654
623.6332149073081 45.80444031571038 79.97058750880754
603.5873688913038 47.61904739441812 79.96731944389572
583.536696970905 49.409524982110895 79.96405138778061
563.4811991502258 51.173460132820054 79.9607833327641
543.4208754312696 52.908439898366446 79.95751527751264
523.3557258146589 54.61205133000338 79.95424722204945
503.2857503004528 56.28188147893017 79.95097916650354
483.2109488886494 57.915517396358055 79.94771111093583
463.1313215793169 59.51054613350607 79.94444305536479
443.04686837245094 61.06455474160494 79.94117499979414
422.95758926804984 62.575130271886906 79.9379069442243
402.8634842661126 64.03985977558442 79.93463888865504
382.7645533666358 65.45633030393088 79.93137083308419
362.6607965696131 66.82212890816328 79.92810277749984
342.55221387504434 68.13484263952923 79.92483472185931
322.43880528300133 69.39205854929338 79.9215666660608
302.3205707938872 70.59136368869251 79.91829861002441
282.1975104090527 71.73034510862577 79.91503055447032
262.06962413183095 72.80658985835582 79.91176250432264
241.93691196459136 73.81768498218034 79.9084944787984
221.79937388170822 74.76121751421097 79.90522652867814
201.65700971663244 75.63477449422855 79.90195871742345
181.5098188228158 76.43594307924977 79.89869081861224
161.35779956753012 77.16231117069204 79.89542084795951
141.20094990593677 77.81146865428362 79.89214033762597
121.03927876551877 78.38101194768424 79.8888250516532
100.87285080577792 78.8685264635569 79.88543648214788
80.70197876863085 79.27156433070792 79.88206598304116
60.527481099894345 79.58692023024295 79.87957708430628
40.35208005085476 79.81107291217494 79.88313608395302
20.176149219679754 79.9315410662975 79.89911202055798
0.0 60.0 80.0
0.0 40.0 80.0
0.0 20.0 80.0
0.0 0.0 20.0
0.0 0.0 40.0
0.0 0.0 60.0
796.168883790022 -51.216974846169315 19.999220264345638
796.1685617631109 -51.21745448322403 40.00000000005581
796.168883790018 -51.216974846170885 60.000779735766024
803.8311162099822 28.78302515383065 20.000779735769
803.8314382368892 28.782545516775976 40.000000000058826
803.8311162099782 28.783025153829108 59.99922026434862
0.0 80.0 20.0
0.0 80.0 40.0
[...]
POINT_DATA 1025
SCALARS CellEntityIds float 1
LOOKUP_TABLE default
0.0
0.24074425986738604
0.24074425986738907
0.0
0.0
0.24074425986740317
0.24074425986740053
0.0
0.001004192891813903
0.0019514360400759035
0.0031908514725120895
0.004774124164724091
0.006720027353169445
0.009033120859295677
0.011712733297831525
0.014754113334865699
0.018149960145209282
0.021891421461382028
0.02596873743662169
0.030371607228835657
0.03508939873915365
0.04011127023476055
0.04542624329606068
0.051023247976365156
0.056891151593606346
0.06301877756074192
0.06939491798467823
0.07600834227096114
0.08284780311215043
0.08990204072813242
0.0971597859169771
0.10460976228269571
0.11224068788449405
0.12004127647358906
0.1280002384319222
0.13610628149301462
0.14434811130194042
0.152714431856604
0.16119394586368405
0.16977535504461094
0.1784473603832527
0.1871986623018334
0.19601795890464727
0.20489393887711976
0.2138152187538368
0.22277030038753623
0.2317476403859368
0.2402328076846061
0.24005959638484575
0.2402328076846063
0.23174764038605278
0.22277030038776477
0.21381521875417708
0.2048939388775705
0.1960179589052072
0.1871986623025002
0.17844736038402348
0.16977535504548305
0.1611939458646537
0.1527144318576677
0.1443481113030938
0.136106281494253
0.12800023843324063
0.12004127647498156
0.11224068788590369
0.1046097622840614
0.09715978591829728
0.08990204072940562
0.08284780311337543
0.0760083422721368
0.06939491798580319
0.06301877756181495
0.05689115159462647
0.051023247977331224
0.04542624329697172
0.04011127023559618
0.03508939873989906
0.030371607229483844
0.02596873743717294
0.021891421461842926
0.018149960145586903
0.014754113335167525
0.011712733298065398
0.009033120859469897
0.0067200273532929235
0.004774124164808187
0.0031908514725647024
0.0019514360401042515
0.0010041928918256926
0.0
0.0
0.0
0.001004192891816179
0.0019514360400805235
0.0031908514725187513
0.0047741241647322715
0.006720027353178736
0.009033120859305802
0.011712733297842311
0.01475411333487703
0.01814996014522104
0.02189142146139414
0.02596873743663416
0.03037160722884839
0.03508939873916666
0.040111270234773795
0.0454262432960742
0.051023247976378895
0.056891151593620445
0.06301877756075619
0.06939491798469274
0.07600834227097587
0.08284780311216525
0.08990204072814742
0.0971597859169923
0.10460976228271114
0.11224068788450964
0.12004127647360487
0.1280002384319383
0.13610628149303095
0.14434811130195666
0.15271443185662056
0.1611939458637008
0.16977535504462785
0.17844736038326955
0.18719866230185037
0.19601795890466397
0.20489393887713617
0.21381521875385368
0.22277030038755313
0.2317476403859538
0.2402328076846217
0.24005959638486007
0.24023280768461922
0.23174764038606402
0.2227703003877757
0.21381521875418769
0.20489393887758045
0.19601795890521673
0.18719866230250948
0.17844736038403244
0.16977535504549118
0.16119394586466157
0.15271443185767508
0.14434811130310052
0.13610628149425927
0.1280002384332461
0.12004127647498643
0.11224068788590782
0.10460976228406492
0.09715978591830016
0.08990204072940798
0.08284780311337722
0.07600834227213793
0.06939491798580372
0.06301877756181487
0.056891151594625704
0.05102324797732984
0.045426243296969745
0.040111270235593556
0.03508939873989591
0.030371607229480138
0.025968737437168685
0.02189142146183818
0.018149960145581633
0.014754113335161814
0.011712733298059313
0.009033120859463539
0.006720027353286474
0.004774124164801921
0.00319085147255906
0.0019514360400998993
0.0010041928918233093
0.0
0.0
0.0
0.0
0.0
0.0
0.24075029043204435
0.24075264504170085
0.2407502904320531
0.240750290432046
0.24075264504170088
0.2407502904320518
0.0
0.0
0.0
0.0004661657966493285
6.808433831272397e-06
0.00046616579665365965
0.0011017529047283568
0.0006105713702751013
0.0011017529047410936
0.0021424489746915227
0.0016692950741433352
0.002142448974716591
0.0036179754543687226
0.0031523231060390992
0.0036179754544098048
0.0055063299306217705
0.00504725525407859
0.0055063299306828285
0.0077917928842678895
0.007339360313829196
0.007791792884354567
0.010461600765407666
0.010016356182338289
0.010461600765524406
0.013504293357733496
0.013066628011189862
0.01350429335788442
0.016908626609062866
0.016478830573736794
0.01690862660925187
0.020663372520631766
0.02024165641076346
0.020663372520862613
0.02475727925116046
0.02434380036365136
0.02475727925143664
0.029179076988252842
0.028773953872471725
0.029179076988577697
0.033917484377085826
0.03352080683565313
0.03391748437745941
0.03896121268092137
0.03857304864949431
0.03896121268134015
0.044298968115086754
0.04391936861177873
0.04429896811554329
0.0499194532811404
0.04954845601423955
0.049919453281624476
0.05581136811943776
0.0554490001547051
0.05581136811994883
0.061963410577864426
0.06160969033441279
0.06196341057840205
0.06836427709403675
0.06801921585575012
0.06836427709460025
0.0750026629486703
0.07466626602136356
0.07500266294925924
0.08186726252791161
0.08153953013392516
0.08186726252852518
0.08894676952054495
0.0886276974960974
0.08894676952118268
0.09622987706810258
0.09591945741053418
0.09622987706876376
0.10370527788053452
0.10340349917988298
0.10370527788121853
0.11136166432640544
0.11106851210678119
0.11136166432711139
0.11918772850407025
0.11890318549385703
0.11918772850476748
0.1271721622984645
0.12689620864379403
0.12717216229912448
0.1353036574271692
0.13503627085969797
0.13530365742778902
0.14357090547878382
0.14331206144634237
0.14357090547936102
0.15196259794624467
0.15171226971311944
0.1519625979467767
0.16046742625638558
0.16022558497487946
0.1604674262568704
0.16907408177883607
0.16884069652592332
0.16907408177927213
0.17777125574763175
0.1775462934406367
0.17777125574801705
0.18654763869893118
0.18633106381752612
0.18654763869926438
0.1953919187337899
0.19518369203557243
0.19539191873406925
0.20429277369387047
0.20409285640895727
0.20429277369409538
0.21323886175827303
0.2130472418706493
0.21323886175844223
0.22221877056423409
0.22203568128642856
0.22221877056434752
0.23122117239270437
0.23104689908634124
0.2312211723927616
0.000907138540388485
0.0009223120334594775
0.0009071385403896857
0.001971419598647954
0.001979255009986332
0.001971419598650335
0.003282657875249633
0.0033126709005096167
0.0032826578752529673
0.0049045940231650575
0.004946432813073096
0.00490459402316912
0.006869139591558921
0.00691745923199804
0.006869139591563539
0.009191529245536666
0.009242950258076761
0.00919152924554171
0.011875405149370681
0.011928228091400803
0.011875405149376054
0.014918012099910795
0.014971241935413748
0.014918012099916436
0.01831309997798863
0.018366101176146815
0.018313099977994497
0.02205245624875414
0.022104795537025677
0.02205245624876021
0.026126732667677028
0.026178106041739636
0.02612673266768322
0.030525900995849398
0.030576090692847013
0.03052590099585578
0.03523951302167955
0.03528836029879559
0.03523951302168607
0.04025685343165838
0.040304240594831786
0.04025685343166502
0.045567032396304996
0.045612870784692096
0.04556703239631174
0.05115904321527464
0.05120326504910002
0.05115904321528151
0.05702179914654387
0.05706435190989594
0.05702179914655089
0.06314415750373722
0.06318500000884314
0.06314415750374436
0.06951493577224933
0.06955403535667956
0.06951493577225652
0.07612292260658989
0.0761602531064765
0.07612292260659723
0.08295688547471365
0.08299242573822302
0.082956885474721
0.09000557606276949
0.09003930884547624
0.09000557606277697
0.09725773415683822
0.09728964529091268
0.09725773415684587
0.10470209047163637
0.10473216823394695
0.10470209047164408
0.11232736873990234
0.11235560336639998
0.11232736873991021
0.12012228727535451
0.1201486705842672
0.12012228727536242
0.12807556015574686
0.12810008525257735
0.12807556015575497
0.13617589812868022
0.1361985591732903
0.13617589812868836
0.14441200931279383
0.1444328013338093
0.144412009312802
0.15277259974648033
0.1527915184915005
0.15277259974648866
0.16124637382163068
0.16126341563234187
0.16124637382163903
0.16982203462951231
0.16983719633764552
0.16982203462952056
0.17848828421920723
0.17850156306799617
0.17848828421921573
0.18723382380441692
0.1872452176296525
0.18723382380442516
0.19604735334682863
0.19605686161932012
0.19604735334683687
0.204917570858196
0.20492520016172625
0.20491757085820436
0.21383315239223666
0.2138389276891899
0.21383315239224512
0.22278278890601255
0.22278678990819856
0.22278278890602102
0.2317554065218708
0.23175810263210778
0.23175540652187937
0.2402384126962702
0.2402413339426246
0.24023841269627833
0.24006470886177983
0.24006804123148362
0.24006470886178718
0.24023841269626983
0.24024133394262356
0.24023841269627655
0.23175540652198534
0.23175810263222069
0.23175540652199092
0.22278278890623932
0.22278678990842396
0.22278278890624492
0.21383315239257528
0.2138389276895268
0.21383315239258047
0.20491757085864507
0.20492520016217375
0.20491757085864998
0.1960473533473863
0.19605686161987596
0.19604735334739115
0.1872338238050813
0.18724521763031501
0.18723382380508585
0.17848828421997578
0.17850156306876264
0.17848828421998025
0.16982203463038156
0.16983719633851274
0.16982203463038595
0.16124637382259752
0.16126341563330637
0.16124637382260157
0.15277259974754098
0.15279151849255865
0.1527725997475447
0.14441200931394393
0.14443280133495684
0.14441200931394724
0.1361758981299153
0.13619855917452242
0.13617589812991832
0.12807556015706165
0.12810008525388916
0.12807556015706442
0.12012228727674343
0.12014867058565296
0.12012228727674577
0.11232736874130811
0.11235560336780258
0.11232736874131019
0.1047020904729981
0.10473216823530529
0.10470209047299983
0.09725773415815436
0.09728964529222539
0.09725773415815586
0.09000557606403857
0.09003930884674191
0.09000557606403978
0.08295688547593441
0.0829924257394403
0.08295688547593533
0.07612292260776114
0.07616025310764421
0.0761229226077617
0.06951493577336983
0.06955403535779632
0.06951493577337017
0.0631441575048058
0.06318500000990786
0.06314415750480581
0.05702179914755945
0.057064351910907564
0.057021799147559116
0.05115904321623609
0.05120326505005743
0.051159043216235434
0.04556703239721138
0.04561287078559441
0.04556703239721043
0.04025685343248933
0.04030424059565853
0.04025685343248808
0.035239513022420246
0.03528836029953202
0.03523951302241871
0.03052590099649293
0.030576090693486255
0.030525900996491145
0.026126732668223653
0.026178106042282014
0.026126732668221624
0.0220524562492105
0.022104795537477774
0.022052456249208218
0.018313099978361804
0.018366101176515742
0.018313099978359296
0.014918012100208315
0.014971241935707088
0.014918012100205585
0.011875405149600476
0.011928228091626532
0.011875405149597581
0.00919152924570712
0.009242950258243331
0.009191529245704112
0.006869139591679083
0.0069174592321146295
0.006869139591676059
0.00490459402324659
0.0049464328131515346
0.004904594023243685
0.003282657875300819
0.0033126709005583733
0.0032826578752982428
0.0019714195986760305
0.001979255010012592
0.0019714195986740646
0.0009071385403997302
0.0009223120334696138
0.0009071385403987248
0.0
0.0
0.0
0.0
0.0
0.0
0.0
0.0
0.0
0.0004661657966513645
6.8084338316744435e-06
0.000466165796651392
0.0011017529047325496
0.0006105713702758861
0.0011017529047374986
0.002142448974696875
0.001669295074144522
0.002142448974712871
0.0036179754543747534
0.003152323106040694
0.0036179754544063795
0.005506329930628304
0.005047255254080587
0.005506329930679825
0.007791792884274847
0.007339360313831605
0.00779179288435203
0.01046160076541501
0.010016356182341115
0.010461600765522362
0.013504293357741223
0.0130666280111931
0.01350429335788288
0.016908626609070908
0.016478830573740423
0.016908626609250826
0.020663372520640128
0.020241656410767497
0.020663372520862085
0.024757279251169134
0.0243438003636558
0.0247572792514366
0.029179076988261835
0.02877395387247654
0.02917907698857815
0.03391748437709509
0.03352080683565833
0.03391748437746034
0.03896121268093091
0.03857304864949987
0.03896121268134157
0.04429896811509658
0.04391936861178471
0.04429896811554523
0.04991945328115062
0.049548456014245935
0.04991945328162697
0.05581136811944832
0.05544900015471195
0.05581136811995186
0.06196341057787527
0.06160969033442004
0.06196341057840561
0.06836427709404794
0.06801921585575785
0.06836427709460435
0.07500266294868176
0.0746662660213716
0.07500266294926382
0.08186726252792333
0.08153953013393361
0.08186726252853024
0.08894676952055688
0.0886276974961063
0.08894676952118823
0.0962298770681148
0.09591945741054325
0.09622987706876973
0.10370527788054712
0.10340349917989257
0.10370527788122501
0.11136166432641831
0.11106851210679118
0.11136166432711844
0.11918772850408332
0.11890318549386755
0.11918772850477515
0.127172162298478
0.12689620864380488
0.12717216229913267
0.13530365742718303
0.13503627085970926
0.13530365742779785
0.1435709054787978
0.14331206144635397
0.14357090547937018
0.15196259794625902
0.1517122697131316
0.1519625979467865
0.16046742625640015
0.16022558497489198
0.16046742625688062
0.16907408177885094
0.1688406965259361
0.16907408177928257
0.17777125574764674
0.1775462934406497
0.1777712557480281
0.1865476386989462
0.18633106381753933
0.18654763869927554
0.1953919187338047
0.1951836920355855
0.19539191873408057
0.20429277369388532
0.20409285640897062
0.20429277369410703
0.2132388617582881
0.21304724187066296
0.21323886175845447
0.2222187705642494
0.22203568128644247
0.22221877056436
0.23122117239272005
0.23104689908635528
0.23122117239277418
0.0004119303796504577
0.00041613204741697816
0.00041193037965140593
0.00014730046659775694
0.0001770063136602723
0.00014730046659795022
0.0004119303796543377
0.0004161320474201424
0.0004119303796534981
0.0011879594769108716
0.0012172641248098669
0.0011879594769128464
0.0007955393679379458
0.0008525021826885743
0.000795539367938338
0.0011879594769225654
0.0012172641248201542
0.0011879594769210768
0.0022971854266697943
0.002346639789314114
0.0022971854266723574
0.001871620584534372
0.0019368373910173238
0.001871620584534967
0.0022971854266931025
0.0023466397893355372
0.0022971854266914706
0.0037957806216112103
0.0038542098130837656
0.0037957806216141416
0.003355752004613654
0.0034233827518668535
0.0033557520046144525
0.003795780621650099
0.003854209813120525
0.003795780621648546
0.0056903678557620185
0.005751277369487504
0.005690367855765223
0.0052464881348395775
0.005313458367348703
0.00524648813484058
0.0056903678558206895
0.0057512773695439145
0.005690367855819299
0.007975867791849183
0.008036926415574287
0.007975867791852626
0.007533081126596553
0.007598381029953459
0.00753308112659776
0.007975867791933395
0.008036926415656183
0.007975867791932208
0.01064326674242737
0.010703530387881207
0.010643266742431013
0.010204337874092128
0.010267744903934495
0.010204337874093534
0.010643266742541605
0.01070353038799311
0.010643266742540652
0.013682354640399703
0.013741413869740206
0.013682354640403524
0.013248880766919864
0.013310357176761612
0.013248880766921475
0.013682354640548088
0.013741413869886266
0.013682354640547366
0.017082399902198505
0.017140031769855395
0.017082399902202516
0.016655375457550567
0.016714924616938374
0.01665537545755239
0.017082399902384988
0.017140031770039546
0.017082399902384516
0.02083242776184676
0.020888494310679795
0.020832427761850937
0.020412503221176593
0.020470129174019278
0.020412503221178605
0.02083242776207508
0.020888494310905854
0.020832427762074848
0.02492133313549299
0.024975742443935595
0.02492133313549731
0.024508951854309832
0.02456465640487381
0.024508951854312046
0.02492133313576667
0.02497574244420701
0.024921333135766673
0.029337937076977978
0.02939062590270201
0.029337937076982443
0.028933410551167327
0.02898719418673189
0.02893341055116974
0.0293379370773003
0.029390625903022077
0.029337937077300553
0.03407101655720784
0.034121940354025396
0.034071016557212494
0.033674568701918296
0.0337264315082023
0.03367456870192088
0.03407101655757892
0.03412194035439428
0.0340710165575794
0.03910932122857285
0.039158447959356635
0.03910932122857764
0.038721115659774444
0.03877105763436848
0.03872111565977719
0.0391093212289892
0.03915844795977076
0.039109321228989906
0.044441583210902434
0.04448888937118752
0.04444158321090737
0.044061740744603305
0.04410976187909883
0.044061740744606274
0.044441583211356515
0.044488889371639535
0.04444158321135749
0.05005652301323859
0.05010199104068764
0.05005652301324368
0.049685133263001426
0.04973123355344756
0.049685133263004645
0.0500565230137203
0.05010199104116724
0.05005652301372153
0.055942853236651734
0.05598646979251275
0.055942853236656986
0.05557998251805074
0.0556241619632688
0.05557998251805418
0.05594285323716045
0.05598646979301948
0.05594285323716197
0.062089280962066506
0.06213103576782883
0.06208928096207194
0.061734977812262344
0.06177723641202077
0.061734977812265994
0.06208928096260185
0.062131035768362194
0.06208928096260366
0.0684845093335613
0.06852439436673209
0.06848450933356687
0.06813880844818265
0.06817914620247222
0.06813880844818646
0.06848450933412253
0.06852439436729141
0.06848450933412462
0.07511723863456968
0.07515524756167416
0.07511723863457542
0.07478016372842436
0.07481858063726071
0.07478016372842844
0.07511723863515635
0.07515524756225894
0.07511723863515866
0.08197616703574609
0.08201229480540054
0.08197616703575189
0.08164773295562965
0.0816842290190211
0.0816477329556339
0.08197616703635743
0.08201229480601017
0.08197616703636003
0.08904999112507545
0.0890842336712505
0.08904999112508136
0.08873020543244882
0.08876478065039826
0.08873020543245318
0.089049991125711
0.08908423367188437
0.0890499911257138
0.09632740629044884
0.09635976031295773
0.09632740629045494
0.09601627046153353
0.09604892483404265
0.09601627046153809
0.09632740629110795
0.09635976031361515
0.09632740629111096
0.10379710700034875
0.1038275698003388
0.10379710700035509
0.1034946173455359
0.10352535087260889
0.10349461734554068
0.10379710700103076
0.10382756980101898
0.10379710700103399
0.11144778701294072
0.11147635636813634
0.11144778701294718
0.11115393538711041
0.11118274806875866
0.11115393538711549
0.11144778701364459
0.11147635636883872
0.11144778701364814
0.11926813953408355
0.11929481360313979
0.11926813953409009
0.11898291388892451
0.11900980572516605
0.11898291388892972
0.11926813953477884
0.11929481360383355
0.11926813953478266
0.12724685733830984
0.12727163458671584
0.12724685733831664
0.12697024215368669
0.12699521314448706
0.12697024215369218
0.127246857338968
0.1272716345873726
0.1272468573389721
0.13537263286271706
0.13539551200471336
0.13537263286272389
0.135104609484188
0.13512765962916173
0.13510460948419353
0.13537263286333523
0.13539551200532993
0.13537263286333948
0.14363415828066467
0.14365513823289805
0.14363415828067175
0.14337470518320056
0.14339583448056945
0.14337470518320639
0.1436341582812403
0.14365513823347237
0.14363415828124484
0.15202012555974453
0.15203920540310048
0.1520201255597517
0.15176921855251074
0.1517884269970109
0.1517692185525168
0.15202012556027508
0.15203920540362972
0.15202012556027994
0.16051922650634137
0.16053640545567507
0.16051922650634873
0.16027683888836786
0.16029412647050953
0.16027683888837407
0.16051922650682485
0.16053640545615727
0.16051922650682998
0.16912015279503045
0.16913543018728588
0.1691201527950378
0.16888625546827926
0.1689016222018178
0.16888625546828565
0.16912015279546497
0.16913543018771962
0.16912015279547046
0.17781159599134758
0.17782497137657396
0.17781159599135504
0.17758615751298287
0.1775996035754463
0.1775861575129893
0.1778115959917318
0.17782497137695713
0.1778115959917372
0.18658224756726235
0.1865937211098319
0.1865822475672698
0.18636523416401818
0.18637676056780106
0.18636523416402487
0.18658224756759442
0.186593721110163
0.1865822475676
0.19542079933775405
0.1954303736473676
0.1954207993377613
0.19521217449838152
0.19522178478756555
0.19521217449838807
0.19542079933803244
0.19543037364764498
0.1954207993380382
0.2043159439528371
0.2043236278699697
0.20431594395284447
0.2041156719837463
0.20412337874707315
0.2041156719837528
0.204315943953061
0.20432362787019287
0.20431594395306668
0.21325638670198072
0.2132622103486987
0.21325638670198838
0.21306444698903867
0.2130702847687501
0.21306444698904545
0.2132563867021493