# vtk DataFile Version 2.0
mesh vtk view
ASCII
DATASET UNSTRUCTURED_GRID
POINTS 1025 double
0.0 0.0 0.0
795.6916211227299 -57.617766985096985 -0.0013655983750386872
804.3083788772793 22.382233014902987 0.001365598503983593
0.0 80.0 0.0
0.0 0.0 80.0
795.6916211227208 -57.61776698510041 80.00136559850067
804.3083788772702 22.382233014899548 79.99863440162832
0.0 80.0 80.0
19.801832127943904 -0.07701630041423645 -0.1134989768718041
39.60390994295052 -0.2125429737986181 -0.13147190555284285
59.406583762865864 -0.4647147409662839 -0.13547578015575643
79.21027388563084 -0.8194901279355004 -0.13267576907923306
99.018042843931 -1.27290772847073 -0.12888395758431978
118.83081138928345 -1.8213615588150347 -0.1250718168909908
138.6489313563711 -2.4620977638761676 -0.12134212017175121
158.4724754871363 -3.192399932900107 -0.11765154604666786
178.30145382499782 -4.009564035754221 -0.11397282906248887
198.1358640695116 -4.910878693882834 -0.11029644290001414
217.97570438385867 -5.893630296380675 -0.1066201552386175
237.82097404067227 -6.9551043948916345 -0.10294371135346764
257.67167285260916 -8.092586409170643 -0.09926718263883288
277.5278007908622 -9.303361752595086 -0.0955906262228087
297.38935785797554 -10.584715850001688 -0.09191406372455609
317.2563440576888 -11.933934131812345 -0.08823750068374148
337.12875939160705 -13.348302030283872 -0.08456093791051282
357.0066038601838 -14.82510497805768 -0.0808843753150303
376.88987746349966 -16.361628407806506 -0.07720781278273915
396.77858020155486 -17.95515775218394 -0.07353125026563946
416.67271207434186 -19.60297844383164 -0.06985468775032934
436.5722730818573 -21.302375915387135 -0.06617812523434641
456.4772632240995 -23.05063559948696 -0.06250156271748639
476.3876825010669 -24.84504292876738 -0.0588250002001642
496.3035309127545 -26.68288333586305 -0.055148437686575735
516.2248084592292 -28.561442253409655 -0.05147187519750451
536.1515151404897 -30.478005114018934 -0.047795312801473845
556.0836509566116 -32.429857350277736 -0.04411875064367234
576.0212159082955 -34.4142843948459 -0.04044218875011998
595.9642099977951 -36.428571681021744 -0.03676562562065317
615.9126332297385 -38.47000464459049 -0.033089052594866684
635.8664856034011 -40.53586872939749 -0.0294124388922705
655.8257670657606 -42.62344938796868 -0.025735710635686335
675.7904773177303 -44.73003206185826 -0.022058822155744263
695.7606153919933 -46.85290168726363 -0.018382348369927574
715.7361784249912 -48.989340857218885 -0.014711142095072254
735.717160568504 -51.136614627464525 -0.011065454136993615
755.7035252827336 -53.29195808094135 -0.007538351125008102
775.6951213264895 -55.45258701647102 -0.004132347202512333
797.8499577179128 -37.615771338578114 -2.5632809317242947e-05
799.9999999999981 -17.614303132423778 6.449683045293625e-11
802.1500422820892 2.384228661428594 2.5632938283030913e-05
784.3048786735525 24.547412983501786 0.004132347326883872
764.2964747173414 26.70804191900441 0.007538351244760556
744.2828394316041 28.863385372454374 0.011065454252144374
724.2638215751499 31.010659142673454 0.014711142205606232
704.2393846081814 33.14709831260245 0.018382348475803254
684.2095226824777 35.269967937982145 0.022058822257025865
664.1742329344809 37.37655061184674 0.025735710732415498
644.1335143968743 39.46413127039356 0.029412438984382477
624.0873667705707 41.529995355177114 0.03308905268246133
604.035790002548 43.571428318723235 0.0367656257037001
583.9787840920817 45.585715604877514 0.04044218882866887
563.9163490437996 47.57014264942524 0.044118750717758025
543.8484848599559 49.52199488566478 0.04779531287113437
523.7751915412509 51.43855774625624 0.05147187526283486
503.69646908775957 53.31711666379873 0.05514843774764863
483.6123174994806 55.154957070905 0.05882500025706569
463.5227367764814 56.949364400196394 0.06250156277032026
443.427726918757 58.69762408430755 0.066178125283202
423.3272879263056 60.397021555874666 0.06985468779530152
403.22141979912595 62.04484224753426 0.07353125030683497
383.1101225372143 63.638371591923914 0.07720781282028348
362.9933961405635 65.17489502168526 0.08088437534904962
342.87124060917336 66.65169796947183 0.08456093794112338
322.74365594312474 68.06606586795638 0.08823750071109034
302.61064214287103 69.41528414978032 0.09191406374877834
282.4721992099414 70.6966382472051 0.0955906262440576
262.3283271480843 71.90741359065132 0.09926718265728696
242.17902595995722 73.0448956049538 0.10294371136930348
222.02429561673108 74.10636970348817 0.10662015525202134
201.86413593103822 75.08912130600784 0.110296442911168
181.69854617551184 75.99043596415659 0.113972829071569
161.52752451333288 76.80760006702906 0.1176515460538702
141.35106864405768 77.53790223606946 0.12134212017727902
121.16918861110477 78.17863844114507 0.1250718168950489
100.98195715641366 78.72709227150169 0.12888395758712695
80.78972611464053 79.18050987204649 0.1326757690810262
60.59341623732925 79.53528525902328 0.13547578015683495
40.39609005717701 79.78745702619668 0.13147190555355456
20.19816787212243 79.9229836995845 0.1134989768725381
0.0 60.0 0.0
0.0 40.0 0.0
0.0 20.0 0.0
19.801832127943435 -0.07701630041459039 80.11349897687191
39.603909942949585 -0.2125429737991152 80.13147190555317
59.406583762864464 -0.46471474096688825 80.13547578015658
79.21027388562898 -0.8194901279361942 80.1326757690808
99.01804284392868 -1.2729077284715113 80.12888395758686
118.8308113892807 -1.8213615588159027 80.12507181689473
138.6489313563679 -2.462097763877126 80.1213421201769
158.47247548713273 -3.1923999329011568 80.11765154605344
178.30145382499384 -4.009564035755356 80.11397282907109
198.13586406950722 -4.910878693884051 80.11029644291062
217.97570438385395 -5.893630296381984 80.10662015525143
237.82097404066718 -6.955104394893021 80.10294371136867
257.67167285260376 -8.092586409172116 80.0992671826566
277.5278007908565 -9.303361752596638 80.0955906262433
297.3893578579695 -10.584715850003331 80.09191406374792
317.25634405768244 -11.933934131814071 80.08823750071015
337.12875939160045 -13.34830203028572 80.08456093794008
357.0066038601769 -14.825104978059603 80.0808843753479
376.88987746349255 -16.36162840780852 80.07720781281907
396.77858020154747 -17.955157752186043 80.07353125030552
416.6727120743343 -19.6029784438338 80.0698546877939
436.57227308184946 -21.302375915389376 80.06617812528172
456.47726322409153 -23.050635599489286 80.06250156276877
476.3876825010587 -24.845042928769804 80.05882500025542
496.3035309127462 -26.68288333586555 80.05514843774588
516.2248084592206 -28.56144225341225 80.05147187526096
536.151515140481 -30.478005114021638 80.0477953128691
556.0836509566028 -32.42985735028053 80.04411875071557
576.0212159082866 -34.41428439484872 80.04044218882636
595.9642099977863 -36.42857168102467 80.03676562570125
615.9126332297295 -38.4700046445935 80.03308905267988
635.866485603392 -40.53586872940058 80.02941243898171
655.8257670657516 -42.623449387971796 80.02573571072963
675.7904773177213 -44.73003206186144 80.02205882225414
695.7606153919842 -46.8529016872668 80.01838234847287
715.7361784249821 -48.98934085722202 80.01471114220256
735.7171605684948 -51.13661462746779 80.01106545424898
755.7035252827245 -53.29195808094467 80.00753835124146
775.6951213264804 -55.4525870164744 80.00413234732358
797.8499577179036 -37.615771338581524 80.00002563293661
799.999999999989 -17.61430313242721 80.00000000006447
802.1500422820801 2.384228661425162 79.99997436719234
784.3048786735434 24.54741298349836 79.9958676528009
764.2964747173323 26.708041919001026 79.99246164887845
744.282839431595 28.863385372451035 79.98893454586644
724.2638215751408 31.010659142670228 79.98528885790832
704.2393846081723 33.1470983125993 79.98161765163348
684.2095226824686 35.269967937979 79.97794117784768
664.1742329344719 37.37655061184363 79.9742642893677
644.1335143968652 39.4641312703906 79.9705875611111
624.0873667705617 41.52999535517418 79.9669109474085
604.035790002539 43.571428318720386 79.96323437438268
583.9787840920728 45.585715604874764 79.95955781125319
563.916349043791 47.570142649422564 79.95588124935959
543.8484848599473 49.52199488566225 79.95220468720173
523.7751915412425 51.438557746253814 79.94852812480563
503.6964690877512 53.31711666379644 79.94485156231649
483.6123174994724 55.15495707090282 79.9411749998028
463.5227367764734 56.94936440019433 79.93749843728538
443.4277269187492 58.69762408430556 79.9338218747684
423.32728792629797 60.39702155587277 79.93014531225234
403.22141979911856 62.04484224753248 79.92646874973693
383.11012253720713 63.63837159192224 79.92279218721971
362.9933961405566 65.17489502168368 79.91911562468732
342.8712406091667 66.65169796947038 79.91543906209174
322.74365594311837 68.06606586795505 79.9117624993184
302.610642142865 69.41528414977908 79.90808593627746
282.47219920993564 70.69663824720399 79.9044093737791
262.32832714807887 71.9074135906503 79.90073281736296
242.17902595995213 73.04489560495287 79.89705628864822
222.02429561672633 74.10636970348735 79.89337984476292
201.86413593103384 75.08912130600712 79.88970355710138
181.69854617550786 75.99043596415598 79.88602717093876
161.5275245133293 76.80760006702855 79.88234845395445
141.35106864405452 77.53790223606906 79.87865787982922
121.16918861110203 78.17863844114478 79.87492818310984
100.98195715641135 78.7270922715015 79.87111604241638
80.78972611463865 79.18050987204641 79.8673242309213
60.593416237327844 79.53528525902333 79.86452421984455
40.396090057176075 79.7874570261968 79.86852809444714
20.19816787212196 79.92298369958469 79.88650102312774
0.0 60.0 80.0
0.0 40.0 80.0
0.0 20.0 80.0
0.0 0.0 20.0
0.0 0.0 40.0
0.0 0.0 60.0
795.6899942637748 -57.61909670194047 19.999122797388843
795.6896319834998 -57.61963629362703 40.00000000006279
795.6899942637701 -57.61909670194223 60.000877202736774
804.31000573623 22.380903298059486 20.000877202740128
804.3103680165003 22.380363706372975 40.00000000006618
804.3100057362254 22.380903298057753 59.999122797392204
0.0 80.0 20.0
0.0 80.0 40.0
0.0 80.0 60.0
[...]
POINT_DATA 1025
SCALARS CellEntityIds float 1
LOOKUP_TABLE default
0.0
0.24074425986738604
0.24074425986738907
0.0
0.0
0.24074425986740317
0.24074425986740053
0.0
0.001004192891813903
0.0019514360400759035
0.0031908514725120895
0.004774124164724091
0.006720027353169445
0.009033120859295677
0.011712733297831525
0.014754113334865699
0.018149960145209282
0.021891421461382028
0.02596873743662169
0.030371607228835657
0.03508939873915365
0.04011127023476055
0.04542624329606068
0.051023247976365156
0.056891151593606346
0.06301877756074192
0.06939491798467823
0.07600834227096114
0.08284780311215043
0.08990204072813242
0.0971597859169771
0.10460976228269571
0.11224068788449405
0.12004127647358906
0.1280002384319222
0.13610628149301462
0.14434811130194042
0.152714431856604
0.16119394586368405
0.16977535504461094
0.1784473603832527
0.1871986623018334
0.19601795890464727
0.20489393887711976
0.2138152187538368
0.22277030038753623
0.2317476403859368
0.2402328076846061
0.24005959638484575
0.2402328076846063
0.23174764038605278
0.22277030038776477
0.21381521875417708
0.2048939388775705
0.1960179589052072
0.1871986623025002
0.17844736038402348
0.16977535504548305
0.1611939458646537
0.1527144318576677
0.1443481113030938
0.136106281494253
0.12800023843324063
0.12004127647498156
0.11224068788590369
0.1046097622840614
0.09715978591829728
0.08990204072940562
0.08284780311337543
0.0760083422721368
0.06939491798580319
0.06301877756181495
0.05689115159462647
0.051023247977331224
0.04542624329697172
0.04011127023559618
0.03508939873989906
0.030371607229483844
0.02596873743717294
0.021891421461842926
0.018149960145586903
0.014754113335167525
0.011712733298065398
0.009033120859469897
0.0067200273532929235
0.004774124164808187
0.0031908514725647024
0.0019514360401042515
0.0010041928918256926
0.0
0.0
0.0
0.001004192891816179
0.0019514360400805235
0.0031908514725187513
0.0047741241647322715
0.006720027353178736
0.009033120859305802
0.011712733297842311
0.01475411333487703
0.01814996014522104
0.02189142146139414
0.02596873743663416
0.03037160722884839
0.03508939873916666
0.040111270234773795
0.0454262432960742
0.051023247976378895
0.056891151593620445
0.06301877756075619
0.06939491798469274
0.07600834227097587
0.08284780311216525
0.08990204072814742
0.0971597859169923
0.10460976228271114
0.11224068788450964
0.12004127647360487
0.1280002384319383
0.13610628149303095
0.14434811130195666
0.15271443185662056
0.1611939458637008
0.16977535504462785
0.17844736038326955
0.18719866230185037
0.19601795890466397
0.20489393887713617
0.21381521875385368
0.22277030038755313
0.2317476403859538
0.2402328076846217
0.24005959638486007
0.24023280768461922
0.23174764038606402
0.2227703003877757
0.21381521875418769
0.20489393887758045
0.19601795890521673
0.18719866230250948
0.17844736038403244
0.16977535504549118
0.16119394586466157
0.15271443185767508
0.14434811130310052
0.13610628149425927
0.1280002384332461
0.12004127647498643
0.11224068788590782
0.10460976228406492
0.09715978591830016
0.08990204072940798
0.08284780311337722
0.07600834227213793
0.06939491798580372
0.06301877756181487
0.056891151594625704
0.05102324797732984
0.045426243296969745
0.040111270235593556
0.03508939873989591
0.030371607229480138
0.025968737437168685
0.02189142146183818
0.018149960145581633
0.014754113335161814
0.011712733298059313
0.009033120859463539
0.006720027353286474
0.004774124164801921
0.00319085147255906
0.0019514360400998993
0.0010041928918233093
0.0
0.0
0.0
0.0
0.0
0.0
0.24075029043204435
0.24075264504170085
0.2407502904320531
0.240750290432046
0.24075264504170088
0.2407502904320518
0.0
0.0
0.0
0.0004661657966493285
6.808433831272397e-06
0.00046616579665365965
0.0011017529047283568
0.0006105713702751013
0.0011017529047410936
0.0021424489746915227
0.0016692950741433352
0.002142448974716591
0.0036179754543687226
0.0031523231060390992
0.0036179754544098048
0.0055063299306217705
0.00504725525407859
0.0055063299306828285
0.0077917928842678895
0.007339360313829196
0.007791792884354567
0.010461600765407666
0.010016356182338289
0.010461600765524406
0.013504293357733496
0.013066628011189862
0.01350429335788442
0.016908626609062866
0.016478830573736794
0.01690862660925187
0.020663372520631766
0.02024165641076346
0.020663372520862613
0.02475727925116046
0.02434380036365136
0.02475727925143664
0.029179076988252842
0.028773953872471725
0.029179076988577697
0.033917484377085826
0.03352080683565313
0.03391748437745941
0.03896121268092137
0.03857304864949431
0.03896121268134015
0.044298968115086754
0.04391936861177873
0.04429896811554329
0.0499194532811404
0.04954845601423955
0.049919453281624476
0.05581136811943776
0.0554490001547051
0.05581136811994883
0.061963410577864426
0.06160969033441279
0.06196341057840205
0.06836427709403675
0.06801921585575012
0.06836427709460025
0.0750026629486703
0.07466626602136356
0.07500266294925924
0.08186726252791161
0.08153953013392516
0.08186726252852518
0.08894676952054495
0.0886276974960974
0.08894676952118268
0.09622987706810258
0.09591945741053418
0.09622987706876376
0.10370527788053452
0.10340349917988298
0.10370527788121853
0.11136166432640544
0.11106851210678119
0.11136166432711139
0.11918772850407025
0.11890318549385703
0.11918772850476748
0.1271721622984645
0.12689620864379403
0.12717216229912448
0.1353036574271692
0.13503627085969797
0.13530365742778902
0.14357090547878382
0.14331206144634237
0.14357090547936102
0.15196259794624467
0.15171226971311944
0.1519625979467767
0.16046742625638558
0.16022558497487946
0.1604674262568704
0.16907408177883607
0.16884069652592332
0.16907408177927213
0.17777125574763175
0.1775462934406367
0.17777125574801705
0.18654763869893118
0.18633106381752612
0.18654763869926438
0.1953919187337899
0.19518369203557243
0.19539191873406925
0.20429277369387047
0.20409285640895727
0.20429277369409538
0.21323886175827303
0.2130472418706493
0.21323886175844223
0.22221877056423409
0.22203568128642856
0.22221877056434752
0.23122117239270437
0.23104689908634124
0.2312211723927616
0.000907138540388485
0.0009223120334594775
0.0009071385403896857
0.001971419598647954
0.001979255009986332
0.001971419598650335
0.003282657875249633
0.0033126709005096167
0.0032826578752529673
0.0049045940231650575
0.004946432813073096
0.00490459402316912
0.006869139591558921
0.00691745923199804
0.006869139591563539
0.009191529245536666
0.009242950258076761
0.00919152924554171
0.011875405149370681
0.011928228091400803
0.011875405149376054
0.014918012099910795
0.014971241935413748
0.014918012099916436
0.01831309997798863
0.018366101176146815
0.018313099977994497
0.02205245624875414
0.022104795537025677
0.02205245624876021
0.026126732667677028
0.026178106041739636
0.02612673266768322
0.030525900995849398
0.030576090692847013
0.03052590099585578
0.03523951302167955
0.03528836029879559
0.03523951302168607
0.04025685343165838
0.040304240594831786
0.04025685343166502
0.045567032396304996
0.045612870784692096
0.04556703239631174
0.05115904321527464
0.05120326504910002
0.05115904321528151
0.05702179914654387
0.05706435190989594
0.05702179914655089
0.06314415750373722
0.06318500000884314
0.06314415750374436
0.06951493577224933
0.06955403535667956
0.06951493577225652
0.07612292260658989
0.0761602531064765
0.07612292260659723
0.08295688547471365
0.08299242573822302
0.082956885474721
0.09000557606276949
0.09003930884547624
0.09000557606277697
0.09725773415683822
0.09728964529091268
0.09725773415684587
0.10470209047163637
0.10473216823394695
0.10470209047164408
0.11232736873990234
0.11235560336639998
0.11232736873991021
0.12012228727535451
0.1201486705842672
0.12012228727536242
0.12807556015574686
0.12810008525257735
0.12807556015575497
0.13617589812868022
0.1361985591732903
0.13617589812868836
0.14441200931279383
0.1444328013338093
0.144412009312802
0.15277259974648033
0.1527915184915005
0.15277259974648866
0.16124637382163068
0.16126341563234187
0.16124637382163903
0.16982203462951231
0.16983719633764552
0.16982203462952056
0.17848828421920723
0.17850156306799617
0.17848828421921573
0.18723382380441692
0.1872452176296525
0.18723382380442516
0.19604735334682863
0.19605686161932012
0.19604735334683687
0.204917570858196
0.20492520016172625
0.20491757085820436
0.21383315239223666
0.2138389276891899
0.21383315239224512
0.22278278890601255
0.22278678990819856
0.22278278890602102
0.2317554065218708
0.23175810263210778
0.23175540652187937
0.2402384126962702
0.2402413339426246
0.24023841269627833
0.24006470886177983
0.24006804123148362
0.24006470886178718
0.24023841269626983
0.24024133394262356
0.24023841269627655
0.23175540652198534
0.23175810263222069
0.23175540652199092
0.22278278890623932
0.22278678990842396
0.22278278890624492
0.21383315239257528
0.2138389276895268
0.21383315239258047
0.20491757085864507
0.20492520016217375
0.20491757085864998
0.1960473533473863
0.19605686161987596
0.19604735334739115
0.1872338238050813
0.18724521763031501
0.18723382380508585
0.17848828421997578
0.17850156306876264
0.17848828421998025
0.16982203463038156
0.16983719633851274
0.16982203463038595
0.16124637382259752
0.16126341563330637
0.16124637382260157
0.15277259974754098
0.15279151849255865
0.1527725997475447
0.14441200931394393
0.14443280133495684
0.14441200931394724
0.1361758981299153
0.13619855917452242
0.13617589812991832
0.12807556015706165
0.12810008525388916
0.12807556015706442
0.12012228727674343
0.12014867058565296
0.12012228727674577
0.11232736874130811
0.11235560336780258
0.11232736874131019
0.1047020904729981
0.10473216823530529
0.10470209047299983
0.09725773415815436
0.09728964529222539
0.09725773415815586
0.09000557606403857
0.09003930884674191
0.09000557606403978
0.08295688547593441
0.0829924257394403
0.08295688547593533
0.07612292260776114
0.07616025310764421
0.0761229226077617
0.06951493577336983
0.06955403535779632
0.06951493577337017
0.0631441575048058
0.06318500000990786
0.06314415750480581
0.05702179914755945
0.057064351910907564
0.057021799147559116
0.05115904321623609
0.05120326505005743
0.051159043216235434
0.04556703239721138
0.04561287078559441
0.04556703239721043
0.04025685343248933
0.04030424059565853
0.04025685343248808
0.035239513022420246
0.03528836029953202
0.03523951302241871
0.03052590099649293
0.030576090693486255
0.030525900996491145
0.026126732668223653
0.026178106042282014
0.026126732668221624
0.0220524562492105
0.022104795537477774
0.022052456249208218
0.018313099978361804
0.018366101176515742
0.018313099978359296
0.014918012100208315
0.014971241935707088
0.014918012100205585
0.011875405149600476
0.011928228091626532
0.011875405149597581
0.00919152924570712
0.009242950258243331
0.009191529245704112
0.006869139591679083
0.0069174592321146295
0.006869139591676059
0.00490459402324659
0.0049464328131515346
0.004904594023243685
0.003282657875300819
0.0033126709005583733
0.0032826578752982428
0.0019714195986760305
0.001979255010012592
0.0019714195986740646
0.0009071385403997302
0.0009223120334696138
0.0009071385403987248
0.0
0.0
0.0
0.0
0.0
0.0
0.0
0.0
0.0
0.0004661657966513645
6.8084338316744435e-06
0.000466165796651392
0.0011017529047325496
0.0006105713702758861
0.0011017529047374986
0.002142448974696875
0.001669295074144522
0.002142448974712871
0.0036179754543747534
0.003152323106040694
0.0036179754544063795
0.005506329930628304
0.005047255254080587
0.005506329930679825
0.007791792884274847
0.007339360313831605
0.00779179288435203
0.01046160076541501
0.010016356182341115
0.010461600765522362
0.013504293357741223
0.0130666280111931
0.01350429335788288
0.016908626609070908
0.016478830573740423
0.016908626609250826
0.020663372520640128
0.020241656410767497
0.020663372520862085
0.024757279251169134
0.0243438003636558
0.0247572792514366
0.029179076988261835
0.02877395387247654
0.02917907698857815
0.03391748437709509
0.03352080683565833
0.03391748437746034
0.03896121268093091
0.03857304864949987
0.03896121268134157
0.04429896811509658
0.04391936861178471
0.04429896811554523
0.04991945328115062
0.049548456014245935
0.04991945328162697
0.05581136811944832
0.05544900015471195
0.05581136811995186
0.06196341057787527
0.06160969033442004
0.06196341057840561
0.06836427709404794
0.06801921585575785
0.06836427709460435
0.07500266294868176
0.0746662660213716
0.07500266294926382
0.08186726252792333
0.08153953013393361
0.08186726252853024
0.08894676952055688
0.0886276974961063
0.08894676952118823
0.0962298770681148
0.09591945741054325
0.09622987706876973
0.10370527788054712
0.10340349917989257
0.10370527788122501
0.11136166432641831
0.11106851210679118
0.11136166432711844
0.11918772850408332
0.11890318549386755
0.11918772850477515
0.127172162298478
0.12689620864380488
0.12717216229913267
0.13530365742718303
0.13503627085970926
0.13530365742779785
0.1435709054787978
0.14331206144635397
0.14357090547937018
0.15196259794625902
0.1517122697131316
0.1519625979467865
0.16046742625640015
0.16022558497489198
0.16046742625688062
0.16907408177885094
0.1688406965259361
0.16907408177928257
0.17777125574764674
0.1775462934406497
0.1777712557480281
0.1865476386989462
0.18633106381753933
0.18654763869927554
0.1953919187338047
0.1951836920355855
0.19539191873408057
0.20429277369388532
0.20409285640897062
0.20429277369410703
0.2132388617582881
0.21304724187066296
0.21323886175845447
0.2222187705642494
0.22203568128644247
0.22221877056436
0.23122117239272005
0.23104689908635528
0.23122117239277418
0.0004119303796504577
0.00041613204741697816
0.00041193037965140593
0.00014730046659775694
0.0001770063136602723
0.00014730046659795022
0.0004119303796543377
0.0004161320474201424
0.0004119303796534981
0.0011879594769108716
0.0012172641248098669
0.0011879594769128464
0.0007955393679379458
0.0008525021826885743
0.000795539367938338
0.0011879594769225654
0.0012172641248201542
0.0011879594769210768
0.0022971854266697943
0.002346639789314114
0.0022971854266723574
0.001871620584534372
0.0019368373910173238
0.001871620584534967
0.0022971854266931025
0.0023466397893355372
0.0022971854266914706
0.0037957806216112103
0.0038542098130837656
0.0037957806216141416
0.003355752004613654
0.0034233827518668535
0.0033557520046144525
0.003795780621650099
0.003854209813120525
0.003795780621648546
0.0056903678557620185
0.005751277369487504
0.005690367855765223
0.0052464881348395775
0.005313458367348703
0.00524648813484058
0.0056903678558206895
0.0057512773695439145
0.005690367855819299
0.007975867791849183
0.008036926415574287
0.007975867791852626
0.007533081126596553
0.007598381029953459
0.00753308112659776
0.007975867791933395
0.008036926415656183
0.007975867791932208
0.01064326674242737
0.010703530387881207
0.010643266742431013
0.010204337874092128
0.010267744903934495
0.010204337874093534
0.010643266742541605
0.01070353038799311
0.010643266742540652
0.013682354640399703
0.013741413869740206
0.013682354640403524
0.013248880766919864
0.013310357176761612
0.013248880766921475
0.013682354640548088
0.013741413869886266
0.013682354640547366
0.017082399902198505
0.017140031769855395
0.017082399902202516
0.016655375457550567
0.016714924616938374
0.01665537545755239
0.017082399902384988
0.017140031770039546
0.017082399902384516
0.02083242776184676
0.020888494310679795
0.020832427761850937
0.020412503221176593
0.020470129174019278
0.020412503221178605
0.02083242776207508
0.020888494310905854
0.020832427762074848
0.02492133313549299
0.024975742443935595
0.02492133313549731
0.024508951854309832
0.02456465640487381
0.024508951854312046
0.02492133313576667
0.02497574244420701
0.024921333135766673
0.029337937076977978
0.02939062590270201
0.029337937076982443
0.028933410551167327
0.02898719418673189
0.02893341055116974
0.0293379370773003
0.029390625903022077
0.029337937077300553
0.03407101655720784
0.034121940354025396
0.034071016557212494
0.033674568701918296
0.0337264315082023
0.03367456870192088
0.03407101655757892
0.03412194035439428
0.0340710165575794
0.03910932122857285
0.039158447959356635
0.03910932122857764
0.038721115659774444
0.03877105763436848
0.03872111565977719
0.0391093212289892
0.03915844795977076
0.039109321228989906
0.044441583210902434
0.04448888937118752
0.04444158321090737
0.044061740744603305
0.04410976187909883
0.044061740744606274
0.044441583211356515
0.044488889371639535
0.04444158321135749
0.05005652301323859
0.05010199104068764
0.05005652301324368
0.049685133263001426
0.04973123355344756
0.049685133263004645
0.0500565230137203
0.05010199104116724
0.05005652301372153
0.055942853236651734
0.05598646979251275
0.055942853236656986
0.05557998251805074
0.0556241619632688
0.05557998251805418
0.05594285323716045
0.05598646979301948
0.05594285323716197
0.062089280962066506
0.06213103576782883
0.06208928096207194
0.061734977812262344
0.06177723641202077
0.061734977812265994
0.06208928096260185
0.062131035768362194
0.06208928096260366
0.0684845093335613
0.06852439436673209
0.06848450933356687
0.06813880844818265
0.06817914620247222
0.06813880844818646
0.06848450933412253
0.06852439436729141
0.06848450933412462
0.07511723863456968
0.07515524756167416
0.07511723863457542
0.07478016372842436
0.07481858063726071
0.07478016372842844
0.07511723863515635
0.07515524756225894
0.07511723863515866
0.08197616703574609
0.08201229480540054
0.08197616703575189
0.08164773295562965
0.0816842290190211
0.0816477329556339
0.08197616703635743
0.08201229480601017
0.08197616703636003
0.08904999112507545
0.0890842336712505
0.08904999112508136
0.08873020543244882
0.08876478065039826
0.08873020543245318
0.089049991125711
0.08908423367188437
0.0890499911257138
0.09632740629044884
0.09635976031295773
0.09632740629045494
0.09601627046153353
0.09604892483404265
0.09601627046153809
0.09632740629110795
0.09635976031361515
0.09632740629111096
0.10379710700034875
0.1038275698003388
0.10379710700035509
0.1034946173455359
0.10352535087260889
0.10349461734554068
0.10379710700103076
0.10382756980101898
0.10379710700103399
0.11144778701294072
0.11147635636813634
0.11144778701294718
0.11115393538711041
0.11118274806875866
0.11115393538711549
0.11144778701364459
0.11147635636883872
0.11144778701364814
0.11926813953408355
0.11929481360313979
0.11926813953409009
0.11898291388892451
0.11900980572516605
0.11898291388892972
0.11926813953477884
0.11929481360383355
0.11926813953478266
0.12724685733830984
0.12727163458671584
0.12724685733831664
0.12697024215368669
0.12699521314448706
0.12697024215369218
0.127246857338968
0.1272716345873726
0.1272468573389721
0.13537263286271706
0.13539551200471336
0.13537263286272389
0.135104609484188
0.13512765962916173
0.13510460948419353
0.13537263286333523
0.13539551200532993
0.13537263286333948
0.14363415828066467
0.14365513823289805
0.14363415828067175
0.14337470518320056
0.14339583448056945
0.14337470518320639
0.1436341582812403
0.14365513823347237
0.14363415828124484
0.15202012555974453
0.15203920540310048
0.1520201255597517
0.15176921855251074
0.1517884269970109
0.1517692185525168
0.15202012556027508
0.15203920540362972
0.15202012556027994
0.16051922650634137
0.16053640545567507
0.16051922650634873
0.16027683888836786
0.16029412647050953
0.16027683888837407
0.16051922650682485
0.16053640545615727
0.16051922650682998
0.16912015279503045
0.16913543018728588
0.1691201527950378
0.16888625546827926
0.1689016222018178
0.16888625546828565
0.16912015279546497
0.16913543018771962
0.16912015279547046
0.17781159599134758
0.17782497137657396
0.17781159599135504
0.17758615751298287
0.1775996035754463
0.1775861575129893
0.1778115959917318
0.17782497137695713
0.1778115959917372
0.18658224756726235
0.1865937211098319
0.1865822475672698
0.18636523416401818
0.18637676056780106
0.18636523416402487
0.18658224756759442
0.186593721110163
0.1865822475676
0.19542079933775405
0.1954303736473676
0.1954207993377613
0.19521217449838152
0.19522178478756555
0.19521217449838807
0.19542079933803244
0.19543037364764498
0.1954207993380382
0.2043159439528371
0.2043236278699697
0.20431594395284447
0.2041156719837463
0.20412337874707315
0.2041156719837528
0.204315943953061
0.20432362787019287
0.20431594395306668
0.21325638670198072
0.2132622103486987
0.21325638670198838
0.21306444698903867
0.2130702847687501
0.21306444698904545
0.2132563867021493