# vtk DataFile Version 2.0
mesh vtk view
ASCII
DATASET UNSTRUCTURED_GRID
POINTS 150 double
0.0 0.0 0.0
1000.0 0.0 0.0
0.0 1000.0 0.0
19.99999999998992 0.0 0.0
39.99999999997797 0.0 0.0
59.99999999995786 0.0 0.0
79.99999999995798 0.0 0.0
99.99999999996537 0.0 0.0
119.9999999999717 0.0 0.0
139.9999999999431 0.0 0.0
159.9999999998936 0.0 0.0
179.9999999998441 0.0 0.0
199.9999999997947 0.0 0.0
219.9999999997452 0.0 0.0
239.9999999996957 0.0 0.0
259.9999999996635 0.0 0.0
279.999999999671 0.0 0.0
299.9999999996784 0.0 0.0
319.9999999996858 0.0 0.0
339.9999999996932 0.0 0.0
359.9999999997005 0.0 0.0
379.9999999997079 0.0 0.0
399.9999999997153 0.0 0.0
419.9999999997227 0.0 0.0
439.9999999997301 0.0 0.0
459.9999999997374 0.0 0.0
479.9999999997448 0.0 0.0
499.9999999997633 0.0 0.0
519.9999999998261 0.0 0.0
539.9999999998333 0.0 0.0
559.9999999998406 0.0 0.0
579.9999999998479 0.0 0.0
599.999999999855 0.0 0.0
619.9999999998623 0.0 0.0
639.9999999998696 0.0 0.0
659.9999999998768 0.0 0.0
679.999999999884 0.0 0.0
699.9999999998913 0.0 0.0
719.9999999998985 0.0 0.0
739.9999999999058 0.0 0.0
759.999999999913 0.0 0.0
779.9999999999203 0.0 0.0
799.9999999999276 0.0 0.0
819.9999999999347 0.0 0.0
839.999999999942 0.0 0.0
859.9999999999493 0.0 0.0
879.9999999999565 0.0 0.0
899.9999999999637 0.0 0.0
919.9999999999709 0.0 0.0
939.9999999999782 0.0 0.0
959.9999999999854 0.0 0.0
979.9999999999927 0.0 0.0
980.0000000000058 19.99999999999421 0.0
960.0000000000125 39.99999999998747 0.0
940.0000000000233 59.99999999997668 0.0
920.000000000024 79.99999999997598 0.0
900.000000000021 99.99999999997893 0.0
880.0000000000186 119.9999999999814 0.0
860.0000000000337 139.9999999999663 0.0
840.0000000000591 159.9999999999409 0.0
820.0000000000846 179.9999999999154 0.0
800.00000000011 199.99999999989 0.0
780.0000000001355 219.9999999998645 0.0
760.000000000161 239.9999999998391 0.0
740.0000000001778 259.9999999998222 0.0
720.0000000001749 279.9999999998251 0.0
700.000000000172 299.999999999828 0.0
680.000000000169 319.9999999998309 0.0
660.0000000001662 339.9999999998338 0.0
640.0000000001633 359.9999999998367 0.0
620.0000000001603 379.9999999998396 0.0
600.0000000001575 399.9999999998425 0.0
580.0000000001546 419.9999999998454 0.0
560.0000000001517 439.9999999998484 0.0
540.0000000001487 459.9999999998512 0.0
520.0000000001459 479.9999999998541 0.0
500.0000000001318 499.9999999998682 0.0
480.0000000000732 519.9999999999268 0.0
460.0000000000703 539.9999999999297 0.0
440.0000000000671 559.9999999999329 0.0
420.000000000064 579.999999999936 0.0
400.0000000000609 599.9999999999391 0.0
380.000000000058 619.999999999942 0.0
360.0000000000549 639.9999999999451 0.0
340.000000000052 659.999999999948 0.0
320.0000000000489 679.9999999999511 0.0
300.0000000000458 699.9999999999542 0.0
280.0000000000427 719.9999999999573 0.0
260.0000000000397 739.9999999999603 0.0
240.0000000000366 759.9999999999634 0.0
220.0000000000337 779.9999999999663 0.0
200.0000000000306 799.9999999999694 0.0
180.0000000000275 819.9999999999725 0.0
160.0000000000244 839.9999999999756 0.0
140.0000000000215 859.9999999999785 0.0
120.0000000000183 879.9999999999817 0.0
100.0000000000153 899.9999999999847 0.0
80.00000000001228 919.9999999999877 0.0
60.00000000000921 939.9999999999908 0.0
40.00000000000614 959.9999999999939 0.0
20.00000000000318 979.9999999999968 0.0
0.0 980.0000000000014 0.0
0.0 960.0000000000026 0.0
0.0 940.000000000004 0.0
0.0 920.0000000000052 0.0
0.0 900.0000000000066 0.0
0.0 880.0000000000078 0.0
0.0 860.0000000000092 0.0
0.0 840.0000000000106 0.0
0.0 820.0000000000118 0.0
0.0 800.0000000000132 0.0
0.0 780.0000000000146 0.0
0.0 760.0000000000159 0.0
0.0 740.0000000000173 0.0
0.0 720.0000000000185 0.0
0.0 700.0000000000199 0.0
0.0 680.0000000000213 0.0
0.0 660.0000000000225 0.0
0.0 640.0000000000239 0.0
0.0 620.0000000000252 0.0
0.0 600.0000000000266 0.0
0.0 580.000000000028 0.0
0.0 560.0000000000293 0.0
0.0 540.0000000000307 0.0
0.0 520.000000000032 0.0
0.0 500.0000000000221 0.0
0.0 479.9999999999681 0.0
0.0 459.9999999999693 0.0
0.0 439.9999999999706 0.0
0.0 419.9999999999719 0.0
0.0 399.9999999999733 0.0
0.0 379.9999999999746 0.0
0.0 359.999999999976 0.0
0.0 339.9999999999773 0.0
0.0 319.9999999999786 0.0
0.0 299.99999999998 0.0
0.0 279.9999999999814 0.0
0.0 259.9999999999827 0.0
0.0 239.9999999999839 0.0
0.0 219.9999999999853 0.0
0.0 199.9999999999866 0.0
0.0 179.9999999999881 0.0
0.0 159.9999999999894 0.0
0.0 139.9999999999906 0.0
0.0 119.999999999992 0.0
0.0 99.99999999999329 0.0
0.0 79.99999999999477 0.0
0.0 59.99999999999602 0.0
0.0 39.99999999999739 0.0
0.0 19.99999999999864 0.0

CELLS 150 450
2 0 3
2 3 4
2 4 5
2 5 6
2 6 7
2 7 8
2 8 9
2 9 10
2 10 11
2 11 12
2 12 13
2 13 14
2 14 15
2 15 16
2 16 17
2 17 18
2 18 19
2 19 20
2 20 21
2 21 22
2 22 23
2 23 24
2 24 25
2 25 26
2 26 27
2 27 28
2 28 29
2 29 30
2 30 31
2 31 32
2 32 33
2 33 34
2 34 35
2 35 36
2 36 37
2 37 38
2 38 39
2 39 40
2 40 41
2 41 42
2 42 43
2 43 44
2 44 45
2 45 46
2 46 47
2 47 48
2 48 49
2 49 50
2 50 51
2 51 1
2 1 52
2 52 53
2 53 54
2 54 55
2 55 56
2 56 57
2 57 58
2 58 59
2 59 60
2 60 61
2 61 62
2 62 63
2 63 64
2 64 65
2 65 66
2 66 67
2 67 68
2 68 69
2 69 70
2 70 71
2 71 72
2 72 73
2 73 74
2 74 75
2 75 76
2 76 77
2 77 78
2 78 79
2 79 80
2 80 81
2 81 82
2 82 83
2 83 84
2 84 85
2 85 86
2 86 87
2 87 88
2 88 89
2 89 90
2 90 91
2 91 92
2 92 93
2 93 94
2 94 95
2 95 96
2 96 97
2 97 98
2 98 99
2 99 100
2 100 2
2 2 101
2 101 102
2 102 103
2 103 104
2 104 105
2 105 106
2 106 107
2 107 108
2 108 109
2 109 110
2 110 111
2 111 112
2 112 113
2 113 114
2 114 115
2 115 116
2 116 117
2 117 118
2 118 119
2 119 120
2 120 121
2 121 122
2 122 123
2 123 124
2 124 125
2 125 126
2 126 127
2 127 128
2 128 129
2 129 130
2 130 131
2 131 132
2 132 133
2 133 134
2 134 135
2 135 136
2 136 137
2 137 138
2 138 139
2 139 140
2 140 141
2 141 142
2 142 143
2 143 144
2 144 145
2 145 146
2 146 147
2 147 148
2 148 149
2 149 0

CELL_TYPES 150
3
3
3
3
3
3
3
3
3
3
3
3
3
3
3
3
3
3
3
3
3
3
3
3
3
3
3
3
3
3
3
3
3
3
3
3
3
3
3
3
3
3
3
3
3
3
3
3
3
3
3
3
3
3
3
3
3
3
3
3
3
3
3
3
3
3
3
3
3
3
3
3
3
3
3
3
3
3
3
3
3
3
3
3
3
3
3
3
3
3
3
3
3
3
3
3
3
3
3
3
3
3
3
3
3
3
3
3
3
3
3
3
3
3
3
3
3
3
3
3
3
3
3
3
3
3
3
3
3
3
3
3
3
3
3
3
3
3
3
3
3
3
3
3
3
3
3
3
3
3

CELL_DATA 150
SCALARS NODISPL float 1
LOOKUP_TABLE default
1.0
1.0
1.0
1.0
1.0
1.0
1.0
1.0
1.0
1.0
1.0
1.0
1.0
1.0
1.0
1.0
1.0
1.0
1.0
1.0
1.0
1.0
1.0
1.0
1.0
1.0
1.0
1.0
1.0
1.0
1.0
1.0
1.0
1.0
1.0
1.0
1.0
1.0
1.0
1.0
1.0
1.0
1.0
1.0
1.0
1.0
1.0
1.0
1.0
1.0
2.0
2.0
2.0
2.0
2.0
2.0
2.0
2.0
2.0
2.0
2.0
2.0
2.0
2.0
2.0
2.0
2.0
2.0
2.0
2.0
2.0
2.0
2.0
2.0
2.0
2.0
2.0
2.0
2.0
2.0
2.0
2.0
2.0
2.0
2.0
2.0
2.0
2.0
2.0
2.0
2.0
2.0
2.0
2.0
2.0
2.0
2.0
2.0
2.0
2.0
3.0
3.0
3.0
3.0
3.0
3.0
3.0
3.0
3.0
3.0
3.0
3.0
3.0
3.0
3.0
3.0
3.0
3.0
3.0
3.0
3.0
3.0
3.0
3.0
3.0
3.0
3.0
3.0
3.0
3.0
3.0
3.0
3.0
3.0
3.0
3.0
3.0
3.0
3.0
3.0
3.0
3.0
3.0
3.0
3.0
3.0
3.0
3.0
3.0
3.0

