# vtk DataFile Version 2.0
mesh vtk view
ASCII
DATASET UNSTRUCTURED_GRID
POINTS 1025 double
0.0 0.0 0.0
794.9735579765182 -67.22072814927984 -0.001593198104211802
805.0264420234926 12.779271850720136 0.0015931982546475254
0.0 80.0 0.0
0.0 0.0 80.0
794.9735579765075 -67.22072814928383 80.00159319825077
805.026442023482 12.779271850716114 79.9984068018997
0.0 80.0 80.0
19.76880414928094 -0.08985235048327588 -0.13241547301710482
39.537894933469275 -0.2479668027650545 -0.15338388981165005
59.307681056716696 -0.542167197793998 -0.15805507684838255
79.07865286662054 -0.9560718159247508 -0.15478839725910526
98.85438331798257 -1.4850590165491853 -0.15036461718170646
118.63594662091059 -2.1249218186175414 -0.14591711970615598
138.4237532491968 -2.872447391188863 -0.14156580686704312
158.2178880684402 -3.7244665883834593 -0.13726013705444587
178.0183627959626 -4.677824708379926 -0.13296830057290374
197.8251747479126 -5.729358476196642 -0.12867918338334988
217.63832178133484 -6.875902012444123 -0.12439018111172044
237.45780304763466 -8.11428846070691 -0.1201009965790456
257.28361832824095 -9.441350810699086 -0.11581171307863838
277.11576758954163 -10.85392204469427 -0.1115223972599435
296.9542508345126 -12.348835158335305 -0.10723307434531547
316.7990680675169 -13.922923153781072 -0.10294375079769842
336.65021929042695 -15.573019035331189 -0.09865442756226499
356.5077045037719 -17.295955807733964 -0.09436510453420204
376.37152370764596 -19.088566475774265 -0.09007578157986237
396.24167690204905 -20.9476840442146 -0.08578645864324606
416.11816408697274 -22.870141517803585 -0.08149713570871758
436.0009852624128 -24.852771901284996 -0.07720781277340416
455.89014042836754 -26.892408199401462 -0.07291848983706747
475.78562958483496 -28.985883416895284 -0.06862916690019158
495.6874527318093 -31.1300305585069 -0.06433984396767171
515.5956098693558 -33.32168262897794 -0.06005052106375528
535.5101009974749 -35.5576726330221 -0.055761198268386165
555.4309261162656 -37.83483357532403 -0.051471875750951086
575.3580852265453 -40.14999846065356 -0.04718255354180665
595.2915783309433 -42.50000029452538 -0.042893229890762045
615.231405434859 -44.88167208535558 -0.03860389469401114
635.1775665374471 -47.29184685096375 -0.03431451204098226
655.1300615768483 -49.727357619296804 -0.030024995741634065
675.0888902041281 -52.18503740550131 -0.02573529251503498
695.05405129075 -54.66171863514092 -0.021446073098248843
715.025541495896 -57.154231000088714 -0.017162999110917634
735.0033539966427 -59.65938373204196 -0.012909696493159222
754.9874461632256 -62.173951094431594 -0.008794742979176122
774.9776415475893 -64.69468485254954 -0.004821071736264389
797.491617337565 -47.21839989500164 -2.9904944203450113e-05
799.9999999999977 -27.216686987817624 7.524630219509231e-11
802.5083826624374 -7.218399894994917 2.9905094663536076e-05
785.0223584524541 15.305315147418739 0.004821071881364519
765.0125538368509 17.826048905505125 0.008794743118887317
744.996646003467 20.340616267863425 0.012909696627501773
724.9744585042469 22.845768999785676 0.017162999239873942
704.9459487094265 25.338281364702844 0.02144607322177047
684.9111097960817 27.81496259431249 0.02573529263319685
664.8699384233953 30.272642380487845 0.030024995854484756
644.8224334628304 32.70815314879247 0.03431451214844623
624.7685945654526 35.11832791437329 0.0386038947962049
604.7084216694024 37.499999705177096 0.042893229987650126
584.6419147738347 39.85000153902375 0.047182553633447026
564.5690738841487 42.16516642432944 0.05147187583738438
544.489899002974 44.4423273666089 0.05576119834965678
524.4043901311278 46.678317370632264 0.060050521139974014
504.3125472687086 48.869969441098505 0.06433984403892341
484.21437041571653 51.014116582722494 0.06862916696657666
464.10985957221743 53.107591800229116 0.07291848989870699
443.99901473820563 55.147228098358795 0.07720781283040236
423.88183591367897 57.12985848185377 0.08149713576118513
403.7583230986361 59.05231595545663 0.0857864586913075
383.6284762930725 60.91143352391123 0.09007578162366409
363.4922954969799 62.70404419196613 0.09436510457389125
343.34978071035806 64.42698096438379 0.0986544275979773
323.2009319333013 66.07707684594911 0.10294375082960541
303.0457491663387 67.65116484141036 0.10723307437357477
282.8842324112667 69.14607795507261 0.1115223972847339
262.71638167245715 70.5586491890932 0.11581171310016815
242.5421969529992 71.88571153911276 0.12010099659752076
222.36167821925903 73.12409798740286 0.12439018112735827
202.17482525264106 74.2706415236758 0.1286791833963627
181.98163720455065 75.32217529151602 0.1329683005834972
161.7821119320322 76.27553341153389 0.1372601370628486
141.57624675123483 77.12755260874769 0.14156580687349224
121.36405337948013 77.87507818133591 0.14591711971089044
101.14561668236419 78.51494098341864 0.15036461718498148
80.92134713365255 79.04392818405424 0.15478839726119728
60.692318943479734 79.45783280219383 0.15805507684964082
40.46210506665915 79.75203319722945 0.15338388981248036
20.231195850785817 79.91014764951525 0.13241547301796114
0.0 60.0 0.0
0.0 40.0 0.0
0.0 20.0 0.0
19.768804149280392 -0.0898523504836888 80.13241547301722
39.53789493346818 -0.24796680276563443 80.15338388981202
59.30768105671506 -0.5421671977947031 80.15805507684934
79.07865286661837 -0.9560718159255601 80.15478839726093
98.85438331797987 -1.485059016550097 80.15036461718466
118.63594662090738 -2.1249218186185534 80.14591711971052
138.42375324919308 -2.872447391189981 80.14156580687305
158.21788806843603 -3.724466588384684 80.13726013706234
178.01836279595793 -4.67782470838125 80.13296830058293
197.8251747479075 -5.729358476198061 80.12867918339573
217.63832178132932 -6.87590201244565 80.12439018112667
237.45780304762872 -8.114288460708527 80.12010099659678
257.28361832823464 -9.441350810700804 80.11581171309936
277.1157675895349 -10.85392204469608 80.11152239728385
296.95425083450556 -12.348835158337224 80.10723307437259
316.79906806750944 -13.922923153783087 80.1029437508285
336.6502192904192 -15.573019035333344 80.09865442759676
356.5077045037639 -17.295955807736206 80.09436510457256
376.3715237076376 -19.088566475776613 80.09007578162225
396.24167690204047 -20.947684044217056 80.08578645868978
416.1181640869639 -22.870141517806104 80.08149713575956
436.0009852624037 -24.85277190128761 80.07720781282868
455.8901404283582 -26.892408199404173 80.07291848989689
475.7856295848254 -28.985883416898112 80.06862916696467
495.68745273179957 -31.130030558509816 80.06433984403688
515.5956098693459 -33.321682628980966 80.06005052113778
535.5101009974649 -35.557672633025255 80.05576119834728
555.4309261162554 -37.834833575327295 80.05147187583484
575.358085226535 -40.14999846065685 80.04718255363076
595.2915783309329 -42.500000294528796 80.0428932299848
615.2314054348485 -44.8816720853591 80.0386038947932
635.1775665374365 -47.29184685096736 80.03431451214533
655.1300615768379 -49.72735761930044 80.03002499585124
675.0888902041175 -52.18503740550503 80.02573529262983
695.0540512907394 -54.66171863514462 80.02144607321834
715.0255414958854 -57.154231000092366 80.01716299923632
735.0033539966321 -59.659383732045775 80.01290969662381
754.9874461632149 -62.17395109443546 80.00879474311505
774.9776415475786 -64.6946848525535 80.0048210718775
797.4916173375543 -47.21839989500562 80.00002990509272
799.9999999999872 -27.21668698782163 80.00000000007523
802.5083826624267 -7.2183998949989245 79.99997009505773
785.0223584524435 15.305315147414746 79.99517892826772
765.0125538368403 17.826048905501175 79.99120525702484
744.9966460034564 20.34061626785953 79.98709030351085
724.9744585042363 22.845768999781917 79.98283700089303
704.9459487094158 25.338281364699164 79.97855392690573
684.9111097960712 27.814962594308817 79.97426470748897
664.8699384233847 30.27264238048422 79.96997500426232
644.82243346282 32.70815314878902 79.96568548796294
624.7685945654422 35.118327914369864 79.9613961053099
604.708421669392 37.49999970517377 79.95710677011313
584.6419147738244 39.85000153902055 79.95281744646205
564.5690738841386 42.165166424326316 79.94852812425286
544.489899002964 44.44232736660595 79.94423880173535
524.4043901311179 46.67831737062944 79.93994947893991
504.31254726869895 48.86996944109584 79.9356601560359
484.214370415707 51.01411658271995 79.93137083310327
464.10985957220805 53.1075918002267 79.92708151016627
443.99901473819654 55.14722809835648 79.9227921872298
423.8818359136701 57.12985848185156 79.9185028642944
403.75832309862744 59.05231595545455 79.91421354135974
383.6284762930641 60.91143352390927 79.909924218423
363.49229549697185 62.7040441919643 79.90563489546854
343.34978071035033 64.4269809643821 79.90134557244036
323.20093193329393 66.07707684594754 79.8970562492048
303.04574916633163 67.65116484140893 79.89276692565704
282.88423241126 69.14607795507132 79.8884776027423
262.7163816724508 70.55864918909201 79.88418828692346
242.54219695299327 71.88571153911168 79.8798990034229
222.36167821925352 73.12409798740191 79.87560981889007
202.17482525263597 74.27064152367497 79.87132081661828
181.981637204546 75.32217529151531 79.86703169942855
161.78211193202802 76.2755334115333 79.86273986294685
141.57624675123114 77.12755260874724 79.8584341931341
121.36405337947691 77.87507818133557 79.85408288029481
101.14561668236149 78.51494098341843 79.8496353828191
80.92134713365036 79.04392818405415 79.84521160274151
60.6923189434781 79.45783280219388 79.84194492315198
40.462105066658054 79.75203319722961 79.84661611018834
20.231195850785266 79.91014764951547 79.86758452698236
0.0 60.0 80.0
0.0 40.0 80.0
0.0 20.0 80.0
0.0 0.0 20.0
0.0 0.0 40.0
0.0 0.0 60.0
794.9716599744039 -67.22227948559723 19.99897659695365
794.971237314083 -67.22290900923156 40.00000000007326
794.9716599743986 -67.22227948559929 60.0010234031929
805.0283400256016 12.777720514402716 20.001023403196815
805.0287626859171 12.777090990768457 40.00000000007721
805.0283400255963 12.777720514400698 59.99897659695757
0.0 80.0 20.0
0.0 80.0 40.0
0.0 80.0 60.0
[...]
POINT_DATA 1025
SCALARS CellEntityIds float 1
LOOKUP_TABLE default
0.0
0.24074425986738604
0.24074425986738907
0.0
0.0
0.24074425986740317
0.24074425986740053
0.0
0.001004192891813903
0.0019514360400759035
0.0031908514725120895
0.004774124164724091
0.006720027353169445
0.009033120859295677
0.011712733297831525
0.014754113334865699
0.018149960145209282
0.021891421461382028
0.02596873743662169
0.030371607228835657
0.03508939873915365
0.04011127023476055
0.04542624329606068
0.051023247976365156
0.056891151593606346
0.06301877756074192
0.06939491798467823
0.07600834227096114
0.08284780311215043
0.08990204072813242
0.0971597859169771
0.10460976228269571
0.11224068788449405
0.12004127647358906
0.1280002384319222
0.13610628149301462
0.14434811130194042
0.152714431856604
0.16119394586368405
0.16977535504461094
0.1784473603832527
0.1871986623018334
0.19601795890464727
0.20489393887711976
0.2138152187538368
0.22277030038753623
0.2317476403859368
0.2402328076846061
0.24005959638484575
0.2402328076846063
0.23174764038605278
0.22277030038776477
0.21381521875417708
0.2048939388775705
0.1960179589052072
0.1871986623025002
0.17844736038402348
0.16977535504548305
0.1611939458646537
0.1527144318576677
0.1443481113030938
0.136106281494253
0.12800023843324063
0.12004127647498156
0.11224068788590369
0.1046097622840614
0.09715978591829728
0.08990204072940562
0.08284780311337543
0.0760083422721368
0.06939491798580319
0.06301877756181495
0.05689115159462647
0.051023247977331224
0.04542624329697172
0.04011127023559618
0.03508939873989906
0.030371607229483844
0.02596873743717294
0.021891421461842926
0.018149960145586903
0.014754113335167525
0.011712733298065398
0.009033120859469897
0.0067200273532929235
0.004774124164808187
0.0031908514725647024
0.0019514360401042515
0.0010041928918256926
0.0
0.0
0.0
0.001004192891816179
0.0019514360400805235
0.0031908514725187513
0.0047741241647322715
0.006720027353178736
0.009033120859305802
0.011712733297842311
0.01475411333487703
0.01814996014522104
0.02189142146139414
0.02596873743663416
0.03037160722884839
0.03508939873916666
0.040111270234773795
0.0454262432960742
0.051023247976378895
0.056891151593620445
0.06301877756075619
0.06939491798469274
0.07600834227097587
0.08284780311216525
0.08990204072814742
0.0971597859169923
0.10460976228271114
0.11224068788450964
0.12004127647360487
0.1280002384319383
0.13610628149303095
0.14434811130195666
0.15271443185662056
0.1611939458637008
0.16977535504462785
0.17844736038326955
0.18719866230185037
0.19601795890466397
0.20489393887713617
0.21381521875385368
0.22277030038755313
0.2317476403859538
0.2402328076846217
0.24005959638486007
0.24023280768461922
0.23174764038606402
0.2227703003877757
0.21381521875418769
0.20489393887758045
0.19601795890521673
0.18719866230250948
0.17844736038403244
0.16977535504549118
0.16119394586466157
0.15271443185767508
0.14434811130310052
0.13610628149425927
0.1280002384332461
0.12004127647498643
0.11224068788590782
0.10460976228406492
0.09715978591830016
0.08990204072940798
0.08284780311337722
0.07600834227213793
0.06939491798580372
0.06301877756181487
0.056891151594625704
0.05102324797732984
0.045426243296969745
0.040111270235593556
0.03508939873989591
0.030371607229480138
0.025968737437168685
0.02189142146183818
0.018149960145581633
0.014754113335161814
0.011712733298059313
0.009033120859463539
0.006720027353286474
0.004774124164801921
0.00319085147255906
0.0019514360400998993
0.0010041928918233093
0.0
0.0
0.0
0.0
0.0
0.0
0.24075029043204435
0.24075264504170085
0.2407502904320531
0.240750290432046
0.24075264504170088
0.2407502904320518
0.0
0.0
0.0
0.0004661657966493285
6.808433831272397e-06
0.00046616579665365965
0.0011017529047283568
0.0006105713702751013
0.0011017529047410936
0.0021424489746915227
0.0016692950741433352
0.002142448974716591
0.0036179754543687226
0.0031523231060390992
0.0036179754544098048
0.0055063299306217705
0.00504725525407859
0.0055063299306828285
0.0077917928842678895
0.007339360313829196
0.007791792884354567
0.010461600765407666
0.010016356182338289
0.010461600765524406
0.013504293357733496
0.013066628011189862
0.01350429335788442
0.016908626609062866
0.016478830573736794
0.01690862660925187
0.020663372520631766
0.02024165641076346
0.020663372520862613
0.02475727925116046
0.02434380036365136
0.02475727925143664
0.029179076988252842
0.028773953872471725
0.029179076988577697
0.033917484377085826
0.03352080683565313
0.03391748437745941
0.03896121268092137
0.03857304864949431
0.03896121268134015
0.044298968115086754
0.04391936861177873
0.04429896811554329
0.0499194532811404
0.04954845601423955
0.049919453281624476
0.05581136811943776
0.0554490001547051
0.05581136811994883
0.061963410577864426
0.06160969033441279
0.06196341057840205
0.06836427709403675
0.06801921585575012
0.06836427709460025
0.0750026629486703
0.07466626602136356
0.07500266294925924
0.08186726252791161
0.08153953013392516
0.08186726252852518
0.08894676952054495
0.0886276974960974
0.08894676952118268
0.09622987706810258
0.09591945741053418
0.09622987706876376
0.10370527788053452
0.10340349917988298
0.10370527788121853
0.11136166432640544
0.11106851210678119
0.11136166432711139
0.11918772850407025
0.11890318549385703
0.11918772850476748
0.1271721622984645
0.12689620864379403
0.12717216229912448
0.1353036574271692
0.13503627085969797
0.13530365742778902
0.14357090547878382
0.14331206144634237
0.14357090547936102
0.15196259794624467
0.15171226971311944
0.1519625979467767
0.16046742625638558
0.16022558497487946
0.1604674262568704
0.16907408177883607
0.16884069652592332
0.16907408177927213
0.17777125574763175
0.1775462934406367
0.17777125574801705
0.18654763869893118
0.18633106381752612
0.18654763869926438
0.1953919187337899
0.19518369203557243
0.19539191873406925
0.20429277369387047
0.20409285640895727
0.20429277369409538
0.21323886175827303
0.2130472418706493
0.21323886175844223
0.22221877056423409
0.22203568128642856
0.22221877056434752
0.23122117239270437
0.23104689908634124
0.2312211723927616
0.000907138540388485
0.0009223120334594775
0.0009071385403896857
0.001971419598647954
0.001979255009986332
0.001971419598650335
0.003282657875249633
0.0033126709005096167
0.0032826578752529673
0.0049045940231650575
0.004946432813073096
0.00490459402316912
0.006869139591558921
0.00691745923199804
0.006869139591563539
0.009191529245536666
0.009242950258076761
0.00919152924554171
0.011875405149370681
0.011928228091400803
0.011875405149376054
0.014918012099910795
0.014971241935413748
0.014918012099916436
0.01831309997798863
0.018366101176146815
0.018313099977994497
0.02205245624875414
0.022104795537025677
0.02205245624876021
0.026126732667677028
0.026178106041739636
0.02612673266768322
0.030525900995849398
0.030576090692847013
0.03052590099585578
0.03523951302167955
0.03528836029879559
0.03523951302168607
0.04025685343165838
0.040304240594831786
0.04025685343166502
0.045567032396304996
0.045612870784692096
0.04556703239631174
0.05115904321527464
0.05120326504910002
0.05115904321528151
0.05702179914654387
0.05706435190989594
0.05702179914655089
0.06314415750373722
0.06318500000884314
0.06314415750374436
0.06951493577224933
0.06955403535667956
0.06951493577225652
0.07612292260658989
0.0761602531064765
0.07612292260659723
0.08295688547471365
0.08299242573822302
0.082956885474721
0.09000557606276949
0.09003930884547624
0.09000557606277697
0.09725773415683822
0.09728964529091268
0.09725773415684587
0.10470209047163637
0.10473216823394695
0.10470209047164408
0.11232736873990234
0.11235560336639998
0.11232736873991021
0.12012228727535451
0.1201486705842672
0.12012228727536242
0.12807556015574686
0.12810008525257735
0.12807556015575497
0.13617589812868022
0.1361985591732903
0.13617589812868836
0.14441200931279383
0.1444328013338093
0.144412009312802
0.15277259974648033
0.1527915184915005
0.15277259974648866
0.16124637382163068
0.16126341563234187
0.16124637382163903
0.16982203462951231
0.16983719633764552
0.16982203462952056
0.17848828421920723
0.17850156306799617
0.17848828421921573
0.18723382380441692
0.1872452176296525
0.18723382380442516
0.19604735334682863
0.19605686161932012
0.19604735334683687
0.204917570858196
0.20492520016172625
0.20491757085820436
0.21383315239223666
0.2138389276891899
0.21383315239224512
0.22278278890601255
0.22278678990819856
0.22278278890602102
0.2317554065218708
0.23175810263210778
0.23175540652187937
0.2402384126962702
0.2402413339426246
0.24023841269627833
0.24006470886177983
0.24006804123148362
0.24006470886178718
0.24023841269626983
0.24024133394262356
0.24023841269627655
0.23175540652198534
0.23175810263222069
0.23175540652199092
0.22278278890623932
0.22278678990842396
0.22278278890624492
0.21383315239257528
0.2138389276895268
0.21383315239258047
0.20491757085864507
0.20492520016217375
0.20491757085864998
0.1960473533473863
0.19605686161987596
0.19604735334739115
0.1872338238050813
0.18724521763031501
0.18723382380508585
0.17848828421997578
0.17850156306876264
0.17848828421998025
0.16982203463038156
0.16983719633851274
0.16982203463038595
0.16124637382259752
0.16126341563330637
0.16124637382260157
0.15277259974754098
0.15279151849255865
0.1527725997475447
0.14441200931394393
0.14443280133495684
0.14441200931394724
0.1361758981299153
0.13619855917452242
0.13617589812991832
0.12807556015706165
0.12810008525388916
0.12807556015706442
0.12012228727674343
0.12014867058565296
0.12012228727674577
0.11232736874130811
0.11235560336780258
0.11232736874131019
0.1047020904729981
0.10473216823530529
0.10470209047299983
0.09725773415815436
0.09728964529222539
0.09725773415815586
0.09000557606403857
0.09003930884674191
0.09000557606403978
0.08295688547593441
0.0829924257394403
0.08295688547593533
0.07612292260776114
0.07616025310764421
0.0761229226077617
0.06951493577336983
0.06955403535779632
0.06951493577337017
0.0631441575048058
0.06318500000990786
0.06314415750480581
0.05702179914755945
0.057064351910907564
0.057021799147559116
0.05115904321623609
0.05120326505005743
0.051159043216235434
0.04556703239721138
0.04561287078559441
0.04556703239721043
0.04025685343248933
0.04030424059565853
0.04025685343248808
0.035239513022420246
0.03528836029953202
0.03523951302241871
0.03052590099649293
0.030576090693486255
0.030525900996491145
0.026126732668223653
0.026178106042282014
0.026126732668221624
0.0220524562492105
0.022104795537477774
0.022052456249208218
0.018313099978361804
0.018366101176515742
0.018313099978359296
0.014918012100208315
0.014971241935707088
0.014918012100205585
0.011875405149600476
0.011928228091626532
0.011875405149597581
0.00919152924570712
0.009242950258243331
0.009191529245704112
0.006869139591679083
0.0069174592321146295
0.006869139591676059
0.00490459402324659
0.0049464328131515346
0.004904594023243685
0.003282657875300819
0.0033126709005583733
0.0032826578752982428
0.0019714195986760305
0.001979255010012592
0.0019714195986740646
0.0009071385403997302
0.0009223120334696138
0.0009071385403987248
0.0
0.0
0.0
0.0
0.0
0.0
0.0
0.0
0.0
0.0004661657966513645
6.8084338316744435e-06
0.000466165796651392
0.0011017529047325496
0.0006105713702758861
0.0011017529047374986
0.002142448974696875
0.001669295074144522
0.002142448974712871
0.0036179754543747534
0.003152323106040694
0.0036179754544063795
0.005506329930628304
0.005047255254080587
0.005506329930679825
0.007791792884274847
0.007339360313831605
0.00779179288435203
0.01046160076541501
0.010016356182341115
0.010461600765522362
0.013504293357741223
0.0130666280111931
0.01350429335788288
0.016908626609070908
0.016478830573740423
0.016908626609250826
0.020663372520640128
0.020241656410767497
0.020663372520862085
0.024757279251169134
0.0243438003636558
0.0247572792514366
0.029179076988261835
0.02877395387247654
0.02917907698857815
0.03391748437709509
0.03352080683565833
0.03391748437746034
0.03896121268093091
0.03857304864949987
0.03896121268134157
0.04429896811509658
0.04391936861178471
0.04429896811554523
0.04991945328115062
0.049548456014245935
0.04991945328162697
0.05581136811944832
0.05544900015471195
0.05581136811995186
0.06196341057787527
0.06160969033442004
0.06196341057840561
0.06836427709404794
0.06801921585575785
0.06836427709460435
0.07500266294868176
0.0746662660213716
0.07500266294926382
0.08186726252792333
0.08153953013393361
0.08186726252853024
0.08894676952055688
0.0886276974961063
0.08894676952118823
0.0962298770681148
0.09591945741054325
0.09622987706876973
0.10370527788054712
0.10340349917989257
0.10370527788122501
0.11136166432641831
0.11106851210679118
0.11136166432711844
0.11918772850408332
0.11890318549386755
0.11918772850477515
0.127172162298478
0.12689620864380488
0.12717216229913267
0.13530365742718303
0.13503627085970926
0.13530365742779785
0.1435709054787978
0.14331206144635397
0.14357090547937018
0.15196259794625902
0.1517122697131316
0.1519625979467865
0.16046742625640015
0.16022558497489198
0.16046742625688062
0.16907408177885094
0.1688406965259361
0.16907408177928257
0.17777125574764674
0.1775462934406497
0.1777712557480281
0.1865476386989462
0.18633106381753933
0.18654763869927554
0.1953919187338047
0.1951836920355855
0.19539191873408057
0.20429277369388532
0.20409285640897062
0.20429277369410703
0.2132388617582881
0.21304724187066296
0.21323886175845447
0.2222187705642494
0.22203568128644247
0.22221877056436
0.23122117239272005
0.23104689908635528
0.23122117239277418
0.0004119303796504577
0.00041613204741697816
0.00041193037965140593
0.00014730046659775694
0.0001770063136602723
0.00014730046659795022
0.0004119303796543377
0.0004161320474201424
0.0004119303796534981
0.0011879594769108716
0.0012172641248098669
0.0011879594769128464
0.0007955393679379458
0.0008525021826885743
0.000795539367938338
0.0011879594769225654
0.0012172641248201542
0.0011879594769210768
0.0022971854266697943
0.002346639789314114
0.0022971854266723574
0.001871620584534372
0.0019368373910173238
0.001871620584534967
0.0022971854266931025
0.0023466397893355372
0.0022971854266914706
0.0037957806216112103
0.0038542098130837656
0.0037957806216141416
0.003355752004613654
0.0034233827518668535
0.0033557520046144525
0.003795780621650099
0.003854209813120525
0.003795780621648546
0.0056903678557620185
0.005751277369487504
0.005690367855765223
0.0052464881348395775
0.005313458367348703
0.00524648813484058
0.0056903678558206895
0.0057512773695439145
0.005690367855819299
0.007975867791849183
0.008036926415574287
0.007975867791852626
0.007533081126596553
0.007598381029953459
0.00753308112659776
0.007975867791933395
0.008036926415656183
0.007975867791932208
0.01064326674242737
0.010703530387881207
0.010643266742431013
0.010204337874092128
0.010267744903934495
0.010204337874093534
0.010643266742541605
0.01070353038799311
0.010643266742540652
0.013682354640399703
0.013741413869740206
0.013682354640403524
0.013248880766919864
0.013310357176761612
0.013248880766921475
0.013682354640548088
0.013741413869886266
0.013682354640547366
0.017082399902198505
0.017140031769855395
0.017082399902202516
0.016655375457550567
0.016714924616938374
0.01665537545755239
0.017082399902384988
0.017140031770039546
0.017082399902384516
0.02083242776184676
0.020888494310679795
0.020832427761850937
0.020412503221176593
0.020470129174019278
0.020412503221178605
0.02083242776207508
0.020888494310905854
0.020832427762074848
0.02492133313549299
0.024975742443935595
0.02492133313549731
0.024508951854309832
0.02456465640487381
0.024508951854312046
0.02492133313576667
0.02497574244420701
0.024921333135766673
0.029337937076977978
0.02939062590270201
0.029337937076982443
0.028933410551167327
0.02898719418673189
0.02893341055116974
0.0293379370773003
0.029390625903022077
0.029337937077300553
0.03407101655720784
0.034121940354025396
0.034071016557212494
0.033674568701918296
0.0337264315082023
0.03367456870192088
0.03407101655757892
0.03412194035439428
0.0340710165575794
0.03910932122857285
0.039158447959356635
0.03910932122857764
0.038721115659774444
0.03877105763436848
0.03872111565977719
0.0391093212289892
0.03915844795977076
0.039109321228989906
0.044441583210902434
0.04448888937118752
0.04444158321090737
0.044061740744603305
0.04410976187909883
0.044061740744606274
0.044441583211356515
0.044488889371639535
0.04444158321135749
0.05005652301323859
0.05010199104068764
0.05005652301324368
0.049685133263001426
0.04973123355344756
0.049685133263004645
0.0500565230137203
0.05010199104116724
0.05005652301372153
0.055942853236651734
0.05598646979251275
0.055942853236656986
0.05557998251805074
0.0556241619632688
0.05557998251805418
0.05594285323716045
0.05598646979301948
0.05594285323716197
0.062089280962066506
0.06213103576782883
0.06208928096207194
0.061734977812262344
0.06177723641202077
0.061734977812265994
0.06208928096260185
0.062131035768362194
0.06208928096260366
0.0684845093335613
0.06852439436673209
0.06848450933356687
0.06813880844818265
0.06817914620247222
0.06813880844818646
0.06848450933412253
0.06852439436729141
0.06848450933412462
0.07511723863456968
0.07515524756167416
0.07511723863457542
0.07478016372842436
0.07481858063726071
0.07478016372842844
0.07511723863515635
0.07515524756225894
0.07511723863515866
0.08197616703574609
0.08201229480540054
0.08197616703575189
0.08164773295562965
0.0816842290190211
0.0816477329556339
0.08197616703635743
0.08201229480601017
0.08197616703636003
0.08904999112507545
0.0890842336712505
0.08904999112508136
0.08873020543244882
0.08876478065039826
0.08873020543245318
0.089049991125711
0.08908423367188437
0.0890499911257138
0.09632740629044884
0.09635976031295773
0.09632740629045494
0.09601627046153353
0.09604892483404265
0.09601627046153809
0.09632740629110795
0.09635976031361515
0.09632740629111096
0.10379710700034875
0.1038275698003388
0.10379710700035509
0.1034946173455359
0.10352535087260889
0.10349461734554068
0.10379710700103076
0.10382756980101898
0.10379710700103399
0.11144778701294072
0.11147635636813634
0.11144778701294718
0.11115393538711041
0.11118274806875866
0.11115393538711549
0.11144778701364459
0.11147635636883872
0.11144778701364814
0.11926813953408355
0.11929481360313979
0.11926813953409009
0.11898291388892451
0.11900980572516605
0.11898291388892972
0.11926813953477884
0.11929481360383355
0.11926813953478266
0.12724685733830984
0.12727163458671584
0.12724685733831664
0.12697024215368669
0.12699521314448706
0.12697024215369218
0.127246857338968
0.1272716345873726
0.1272468573389721
0.13537263286271706
0.13539551200471336
0.13537263286272389
0.135104609484188
0.13512765962916173
0.13510460948419353
0.13537263286333523
0.13539551200532993
0.13537263286333948
0.14363415828066467
0.14365513823289805
0.14363415828067175
0.14337470518320056
0.14339583448056945
0.14337470518320639
0.1436341582812403
0.14365513823347237
0.14363415828124484
0.15202012555974453
0.15203920540310048
0.1520201255597517
0.15176921855251074
0.1517884269970109
0.1517692185525168
0.15202012556027508
0.15203920540362972
0.15202012556027994
0.16051922650634137
0.16053640545567507
0.16051922650634873
0.16027683888836786
0.16029412647050953
0.16027683888837407
0.16051922650682485
0.16053640545615727
0.16051922650682998
0.16912015279503045
0.16913543018728588
0.1691201527950378
0.16888625546827926
0.1689016222018178
0.16888625546828565
0.16912015279546497
0.16913543018771962
0.16912015279547046
0.17781159599134758
0.17782497137657396
0.17781159599135504
0.17758615751298287
0.1775996035754463
0.1775861575129893
0.1778115959917318
0.17782497137695713
0.1778115959917372
0.18658224756726235
0.1865937211098319
0.1865822475672698
0.18636523416401818
0.18637676056780106
0.18636523416402487
0.18658224756759442
0.186593721110163
0.1865822475676
0.19542079933775405
0.1954303736473676
0.1954207993377613
0.19521217449838152
0.19522178478756555
0.19521217449838807
0.19542079933803244
0.19543037364764498
0.1954207993380382
0.2043159439528371
0.2043236278699697
0.20431594395284447
0.2041156719837463
0.20412337874707315
0.2041156719837528
0.204315943953061
0.20432362787019287
0.20431594395306668
0.21325638670198072
0.2132622103486987
0.21325638670198838
0.21306444698903867
0.2130702847687501
0.21306444698904545
0.2132563867021493