# vtk DataFile Version 2.0
mesh vtk view
ASCII
DATASET UNSTRUCTURED_GRID
POINTS 1025 double
0.0 0.0 0.0
793.6571088751301 -84.82615695028174 -0.0020104642743625136
806.3428911248834 -4.826156950281799 0.002010464464198069
0.0 80.0 0.0
0.0 0.0 80.0
793.6571088751167 -84.8261569502868 80.00201046445932
806.3428911248701 -4.826156950286858 79.99798953573058
0.0 80.0 80.0
19.708252855065503 -0.11338510894318153 -0.16709571595015618
39.41686741608697 -0.3129104892035214 -0.19355586095279662
59.126359428776546 -0.6841633686448075 -0.19945045411819715
78.83734766510166 -1.2064715772383767 -0.19532821558887106
98.55434085374377 -1.8740030446930207 -0.1897458264435821
118.27869454556036 -2.6814489615888037 -0.18413350820062552
138.01092671937727 -3.6247550412621385 -0.17864256580841167
157.75114446749734 -4.699922123436273 -0.1732092205687056
177.4993625760646 -5.902969274860387 -0.167793331675331
197.25557765831445 -7.229904743771957 -0.16238087426946543
217.01978701004114 -8.67673349189378 -0.1569685618790759
236.79198956039903 -10.239459248034915 -0.15155601949260528
256.57218503356586 -11.914085546834569 -0.14614335221828187
276.36037338712055 -13.696615913542779 -0.1407306441613574
296.1565546248306 -15.583053890280276 -0.13531792715004104
315.96072875220165 -17.56940302739041 -0.12990520933995287
335.7728957715968 -19.65166687791794 -0.12449249192381066
355.5930556836835 -21.825848995473827 -0.11907977476935026
375.4212084885807 -24.087952933715158 -0.11366705770792164
395.25735418628847 -26.433982246270823 -0.1082543406688582
415.10149277679596 -28.859940486752162 -0.1028416236324294
434.95362426009797 -31.36183120876442 -0.09742890659501008
454.81374863619226 -33.93565796591139 -0.09201618955629949
474.6818659050764 -36.577424311796456 -0.08660347251690849
494.55797606674304 -39.283133800020636 -0.08119075548301435
514.4420791212549 -42.04878998418648 -0.07577803848521504
534.3341750686145 -44.87039641786125 -0.07036532162439212
554.2342639089646 -47.7439566545756 -0.06495260511429546
574.1423456433365 -50.66547424796762 -0.05953988899323224
594.0584202750482 -53.63095275261539 -0.05412717105262833
613.9824878109132 -56.636395726758266 -0.04871443854244266
633.9145482498648 -59.677806740501914 -0.04330164614695383
653.8546015138425 -62.75118937673172 -0.03788868510253825
673.802647162524 -65.85254720218028 -0.032475488173734635
693.7586837718038 -68.97788303958264 -0.027062901766837844
713.7227071258882 -72.12319626201676 -0.02165807030663417
733.694708614897 -75.28446042376729 -0.01629080747946284
753.6746344441278 -78.45760495249706 -0.011098128045150828
773.662261952939 -81.63853088536018 -0.006083733381476495
796.8346599735938 -64.82321891511144 -3.773719149482993e-05
799.9999999999972 -44.821057389373024 9.495366705571179e-11
803.165340026409 -24.823218915104732 3.773738136112888e-05
786.3377380471073 -1.6385308854002147 0.00608373356457904
766.3253655559517 1.542395047423085 0.01109812822145305
746.3052913852158 4.715539576113315 0.01629080764899034
726.2772928742579 7.876803737824744 0.02165807046936475
706.2413162283759 11.022116960220217 0.02706290192271037
686.1973528376894 14.147452797584762 0.032475488322843665
666.1453984864049 17.248810622996523 0.037888685244945076
646.0854517504168 20.322193259190456 0.04330164628256313
626.017512189403 23.363604272899586 0.048714438671401454
605.9415797253023 26.369047247009156 0.05412717117489186
585.8576543570487 29.33452575162518 0.059539889108873666
565.7657360914553 32.25604334498712 0.06495260522336604
545.6658249318405 35.1296035816731 0.07036532172694789
525.5579208792356 37.95121001532164 0.07577803858139583
505.4420239337819 40.71686619948142 0.08119075557292722
485.3181340954824 43.42257568772122 0.08660347260068012
465.18625136440016 46.06434203362244 0.09201618963408269
445.04637574052816 48.63816879078608 0.09742890666693636
424.8985072238636 51.140059512815455 0.10284162369863843
404.7426458144047 53.5660177533143 0.10825434072950714
384.57879151214587 55.91204706588796 0.11366705776319523
364.40694431707664 58.17415100414772 0.11907977481943427
344.2271042291967 60.34833312172239 0.1244924919688762
324.03927124862514 62.430596972269115 0.12990520938021644
303.8434453760294 64.41694610939878 0.13531792718570157
283.6396266136964 66.30338408616305 0.14073064419264047
263.42781496714065 68.08591445290332 0.1461433522454504
243.20801044024284 69.76054075173752 0.15155601951591915
222.98021299056032 71.32326650791312 0.15696856189880934
202.74442234224625 72.7700952560671 0.16238087428588638
182.5006374244551 74.09703072500831 0.16779333168869895
162.24885553298097 75.30007787645943 0.17320922057930904
141.9890732810596 76.3752449586578 0.17864256581654983
121.72130545483493 77.31855103835245 0.18413350820659996
101.44565914660683 78.12599695526637 0.18974582644771484
81.16265233517457 78.79352842273511 0.19532821559151098
60.87364057142229 79.31583663133983 0.199450454119785
40.58313258404306 79.68708951078955 0.1935558609538444
20.291747145002024 79.88661489105496 0.1670957159512368
0.0 60.0 0.0
0.0 40.0 0.0
0.0 20.0 0.0
19.70825285506481 -0.1133851089437026 80.1670957159503
39.416867416085594 -0.3129104892042532 80.19355586095327
59.12635942877448 -0.6841633686456972 80.1994504541194
78.83734766509892 -1.2064715772393981 80.19532821559118
98.55434085374036 -1.8740030446941713 80.18974582644732
118.2786945455563 -2.6814489615900814 80.18413350820613
138.0109267193726 -3.62475504126355 80.17864256581599
157.75114446749205 -4.699922123437819 80.17320922057867
177.49936257605876 -5.902969274862057 80.16779333168799
197.25557765830803 -7.229904743773748 80.16238087428509
217.01978701003418 -8.676733491895707 80.15696856189794
236.79198956039156 -10.239459248036956 80.15155601951498
256.57218503355784 -11.914085546836736 80.14614335224444
276.3603733871121 -13.696615913545063 80.14073064419152
296.1565546248217 -15.583053890282695 80.13531792718445
315.9607287521923 -17.569403027392955 80.12990520937882
335.772895771587 -19.65166687792066 80.12449249196735
355.5930556836733 -21.825848995476658 80.11907977481776
375.4212084885702 -24.087952933718125 80.1136670577614
395.2573541862776 -26.43398224627392 80.10825434072758
415.10149277678477 -28.859940486755338 80.10284162369659
434.9536242600864 -31.36183120876772 80.09742890666476
454.8137486361805 -33.935657965914814 80.09201618963179
474.68186590506434 -36.57742431180002 80.08660347259827
494.5579760667308 -39.283133800024316 80.08119075557033
514.4420791212424 -42.04878998419029 80.07577803857863
534.3341750686019 -44.87039641786523 80.07036532172395
554.2342639089518 -47.743956654579705 80.06495260522016
574.1423456433236 -50.66547424797177 80.05953988910548
594.0584202750351 -53.630952752619706 80.05412717117129
613.9824878109 -56.636395726762714 80.0487144386676
633.9145482498515 -59.67780674050647 80.04330164627864
653.8546015138293 -62.75118937673631 80.03788868524084
673.8026471625107 -65.85254720218497 80.0324754883186
693.7586837717905 -68.9778830395873 80.02706290191838
713.7227071258746 -72.12319626202137 80.02165807046488
733.6947086148834 -75.2844604237721 80.01629080764434
753.6746344441143 -78.45760495250194 80.0110981282166
773.6622619529255 -81.63853088536517 80.0060837335597
796.8346599735804 -64.82321891511647 80.0000377373789
799.9999999999837 -44.82105738937808 80.00000000009493
803.1653400263956 -24.823218915109777 79.99996226281095
786.3377380470939 -1.6385308854052596 79.99391626662354
766.3253655559383 1.542395047418097 79.98890187195992
746.3052913852024 4.715539576108398 79.9837091925256
726.2772928742445 7.876803737819998 79.97834192969835
706.2413162283625 11.02211696021557 79.97293709823818
686.197352837676 14.14745279758013 79.96752451183131
666.1453984863916 17.248810622991954 79.96211131490244
646.0854517504036 20.322193259186115 79.956698353858
626.0175121893898 23.363604272895273 79.9512855614625
605.9415797252892 26.369047247004964 79.94587282895228
585.8576543570357 29.334525751621136 79.94046011101163
565.7657360914425 32.256043344983176 79.93504739489052
545.6658249318278 35.129603581669386 79.92963467838032
525.557920879223 37.951210015318075 79.92422196151941
505.4420239337697 40.716866199478055 79.9188092445215
485.3181340954703 43.422575687718 79.91339652748746
465.18625136438834 46.06434203361939 79.90798381044792
445.0463757405167 48.638168790783155 79.90257109340904
424.8985072238524 51.140059512812655 79.8971583763715
404.74264581439377 53.566017753311684 79.89174565933492
384.5787915121353 55.912047065885496 79.8863329422957
364.4069443170665 58.17415100414541 79.8809202252341
344.2271042291869 60.34833312172026 79.8755075080795
324.03927124861576 62.43059697226714 79.87009479066319
303.8434453760205 64.41694610939697 79.86468207285293
283.63962661368794 66.30338408616142 79.85926935584146
263.42781496713263 68.08591445290182 79.85385664778437
243.20801044023534 69.76054075173616 79.84844398050986
222.98021299055335 71.32326650791192 79.84303143812318
202.74442234223983 72.77009525606603 79.83761912573259
182.50063742444922 74.09703072500741 79.83220666832652
162.2488555329757 75.30007787645869 79.82679077943294
141.98907328105494 76.37524495865722 79.82135743419302
121.72130545483088 77.31855103835203 79.8158664918006
101.44565914660342 78.12599695526612 79.81025417355744
81.16265233517183 78.793528422735 79.80467178441192
60.87364057142023 79.31583663133989 79.80054954588226
40.58313258404168 79.68708951078973 79.80644413904717
20.29174714500133 79.88661489105523 79.83290428404916
0.0 60.0 80.0
0.0 40.0 80.0
0.0 20.0 80.0
0.0 0.0 20.0
0.0 0.0 40.0
0.0 0.0 60.0
793.654713777224 -84.82811458896799 19.998708562822465
793.6541804201524 -84.82890898783987 40.00000000009244
793.6547137772172 -84.82811458897059 60.001291437362475
806.345286222783 -4.828114588968049 20.00129143736741
806.3458195798477 -4.828908987839867 40.00000000009743
806.3452862227763 -4.828114588970607 59.99870856282741
0.0 80.0 20.0
0.0 80.0 40.0
0.0 80.0 60.0
[...]
POINT_DATA 1025
SCALARS CellEntityIds float 1
LOOKUP_TABLE default
0.0
0.24074425986738604
0.24074425986738907
0.0
0.0
0.24074425986740317
0.24074425986740053
0.0
0.001004192891813903
0.0019514360400759035
0.0031908514725120895
0.004774124164724091
0.006720027353169445
0.009033120859295677
0.011712733297831525
0.014754113334865699
0.018149960145209282
0.021891421461382028
0.02596873743662169
0.030371607228835657
0.03508939873915365
0.04011127023476055
0.04542624329606068
0.051023247976365156
0.056891151593606346
0.06301877756074192
0.06939491798467823
0.07600834227096114
0.08284780311215043
0.08990204072813242
0.0971597859169771
0.10460976228269571
0.11224068788449405
0.12004127647358906
0.1280002384319222
0.13610628149301462
0.14434811130194042
0.152714431856604
0.16119394586368405
0.16977535504461094
0.1784473603832527
0.1871986623018334
0.19601795890464727
0.20489393887711976
0.2138152187538368
0.22277030038753623
0.2317476403859368
0.2402328076846061
0.24005959638484575
0.2402328076846063
0.23174764038605278
0.22277030038776477
0.21381521875417708
0.2048939388775705
0.1960179589052072
0.1871986623025002
0.17844736038402348
0.16977535504548305
0.1611939458646537
0.1527144318576677
0.1443481113030938
0.136106281494253
0.12800023843324063
0.12004127647498156
0.11224068788590369
0.1046097622840614
0.09715978591829728
0.08990204072940562
0.08284780311337543
0.0760083422721368
0.06939491798580319
0.06301877756181495
0.05689115159462647
0.051023247977331224
0.04542624329697172
0.04011127023559618
0.03508939873989906
0.030371607229483844
0.02596873743717294
0.021891421461842926
0.018149960145586903
0.014754113335167525
0.011712733298065398
0.009033120859469897
0.0067200273532929235
0.004774124164808187
0.0031908514725647024
0.0019514360401042515
0.0010041928918256926
0.0
0.0
0.0
0.001004192891816179
0.0019514360400805235
0.0031908514725187513
0.0047741241647322715
0.006720027353178736
0.009033120859305802
0.011712733297842311
0.01475411333487703
0.01814996014522104
0.02189142146139414
0.02596873743663416
0.03037160722884839
0.03508939873916666
0.040111270234773795
0.0454262432960742
0.051023247976378895
0.056891151593620445
0.06301877756075619
0.06939491798469274
0.07600834227097587
0.08284780311216525
0.08990204072814742
0.0971597859169923
0.10460976228271114
0.11224068788450964
0.12004127647360487
0.1280002384319383
0.13610628149303095
0.14434811130195666
0.15271443185662056
0.1611939458637008
0.16977535504462785
0.17844736038326955
0.18719866230185037
0.19601795890466397
0.20489393887713617
0.21381521875385368
0.22277030038755313
0.2317476403859538
0.2402328076846217
0.24005959638486007
0.24023280768461922
0.23174764038606402
0.2227703003877757
0.21381521875418769
0.20489393887758045
0.19601795890521673
0.18719866230250948
0.17844736038403244
0.16977535504549118
0.16119394586466157
0.15271443185767508
0.14434811130310052
0.13610628149425927
0.1280002384332461
0.12004127647498643
0.11224068788590782
0.10460976228406492
0.09715978591830016
0.08990204072940798
0.08284780311337722
0.07600834227213793
0.06939491798580372
0.06301877756181487
0.056891151594625704
0.05102324797732984
0.045426243296969745
0.040111270235593556
0.03508939873989591
0.030371607229480138
0.025968737437168685
0.02189142146183818
0.018149960145581633
0.014754113335161814
0.011712733298059313
0.009033120859463539
0.006720027353286474
0.004774124164801921
0.00319085147255906
0.0019514360400998993
0.0010041928918233093
0.0
0.0
0.0
0.0
0.0
0.0
0.24075029043204435
0.24075264504170085
0.2407502904320531
0.240750290432046
0.24075264504170088
0.2407502904320518
0.0
0.0
0.0
0.0004661657966493285
6.808433831272397e-06
0.00046616579665365965
0.0011017529047283568
0.0006105713702751013
0.0011017529047410936
0.0021424489746915227
0.0016692950741433352
0.002142448974716591
0.0036179754543687226
0.0031523231060390992
0.0036179754544098048
0.0055063299306217705
0.00504725525407859
0.0055063299306828285
0.0077917928842678895
0.007339360313829196
0.007791792884354567
0.010461600765407666
0.010016356182338289
0.010461600765524406
0.013504293357733496
0.013066628011189862
0.01350429335788442
0.016908626609062866
0.016478830573736794
0.01690862660925187
0.020663372520631766
0.02024165641076346
0.020663372520862613
0.02475727925116046
0.02434380036365136
0.02475727925143664
0.029179076988252842
0.028773953872471725
0.029179076988577697
0.033917484377085826
0.03352080683565313
0.03391748437745941
0.03896121268092137
0.03857304864949431
0.03896121268134015
0.044298968115086754
0.04391936861177873
0.04429896811554329
0.0499194532811404
0.04954845601423955
0.049919453281624476
0.05581136811943776
0.0554490001547051
0.05581136811994883
0.061963410577864426
0.06160969033441279
0.06196341057840205
0.06836427709403675
0.06801921585575012
0.06836427709460025
0.0750026629486703
0.07466626602136356
0.07500266294925924
0.08186726252791161
0.08153953013392516
0.08186726252852518
0.08894676952054495
0.0886276974960974
0.08894676952118268
0.09622987706810258
0.09591945741053418
0.09622987706876376
0.10370527788053452
0.10340349917988298
0.10370527788121853
0.11136166432640544
0.11106851210678119
0.11136166432711139
0.11918772850407025
0.11890318549385703
0.11918772850476748
0.1271721622984645
0.12689620864379403
0.12717216229912448
0.1353036574271692
0.13503627085969797
0.13530365742778902
0.14357090547878382
0.14331206144634237
0.14357090547936102
0.15196259794624467
0.15171226971311944
0.1519625979467767
0.16046742625638558
0.16022558497487946
0.1604674262568704
0.16907408177883607
0.16884069652592332
0.16907408177927213
0.17777125574763175
0.1775462934406367
0.17777125574801705
0.18654763869893118
0.18633106381752612
0.18654763869926438
0.1953919187337899
0.19518369203557243
0.19539191873406925
0.20429277369387047
0.20409285640895727
0.20429277369409538
0.21323886175827303
0.2130472418706493
0.21323886175844223
0.22221877056423409
0.22203568128642856
0.22221877056434752
0.23122117239270437
0.23104689908634124
0.2312211723927616
0.000907138540388485
0.0009223120334594775
0.0009071385403896857
0.001971419598647954
0.001979255009986332
0.001971419598650335
0.003282657875249633
0.0033126709005096167
0.0032826578752529673
0.0049045940231650575
0.004946432813073096
0.00490459402316912
0.006869139591558921
0.00691745923199804
0.006869139591563539
0.009191529245536666
0.009242950258076761
0.00919152924554171
0.011875405149370681
0.011928228091400803
0.011875405149376054
0.014918012099910795
0.014971241935413748
0.014918012099916436
0.01831309997798863
0.018366101176146815
0.018313099977994497
0.02205245624875414
0.022104795537025677
0.02205245624876021
0.026126732667677028
0.026178106041739636
0.02612673266768322
0.030525900995849398
0.030576090692847013
0.03052590099585578
0.03523951302167955
0.03528836029879559
0.03523951302168607
0.04025685343165838
0.040304240594831786
0.04025685343166502
0.045567032396304996
0.045612870784692096
0.04556703239631174
0.05115904321527464
0.05120326504910002
0.05115904321528151
0.05702179914654387
0.05706435190989594
0.05702179914655089
0.06314415750373722
0.06318500000884314
0.06314415750374436
0.06951493577224933
0.06955403535667956
0.06951493577225652
0.07612292260658989
0.0761602531064765
0.07612292260659723
0.08295688547471365
0.08299242573822302
0.082956885474721
0.09000557606276949
0.09003930884547624
0.09000557606277697
0.09725773415683822
0.09728964529091268
0.09725773415684587
0.10470209047163637
0.10473216823394695
0.10470209047164408
0.11232736873990234
0.11235560336639998
0.11232736873991021
0.12012228727535451
0.1201486705842672
0.12012228727536242
0.12807556015574686
0.12810008525257735
0.12807556015575497
0.13617589812868022
0.1361985591732903
0.13617589812868836
0.14441200931279383
0.1444328013338093
0.144412009312802
0.15277259974648033
0.1527915184915005
0.15277259974648866
0.16124637382163068
0.16126341563234187
0.16124637382163903
0.16982203462951231
0.16983719633764552
0.16982203462952056
0.17848828421920723
0.17850156306799617
0.17848828421921573
0.18723382380441692
0.1872452176296525
0.18723382380442516
0.19604735334682863
0.19605686161932012
0.19604735334683687
0.204917570858196
0.20492520016172625
0.20491757085820436
0.21383315239223666
0.2138389276891899
0.21383315239224512
0.22278278890601255
0.22278678990819856
0.22278278890602102
0.2317554065218708
0.23175810263210778
0.23175540652187937
0.2402384126962702
0.2402413339426246
0.24023841269627833
0.24006470886177983
0.24006804123148362
0.24006470886178718
0.24023841269626983
0.24024133394262356
0.24023841269627655
0.23175540652198534
0.23175810263222069
0.23175540652199092
0.22278278890623932
0.22278678990842396
0.22278278890624492
0.21383315239257528
0.2138389276895268
0.21383315239258047
0.20491757085864507
0.20492520016217375
0.20491757085864998
0.1960473533473863
0.19605686161987596
0.19604735334739115
0.1872338238050813
0.18724521763031501
0.18723382380508585
0.17848828421997578
0.17850156306876264
0.17848828421998025
0.16982203463038156
0.16983719633851274
0.16982203463038595
0.16124637382259752
0.16126341563330637
0.16124637382260157
0.15277259974754098
0.15279151849255865
0.1527725997475447
0.14441200931394393
0.14443280133495684
0.14441200931394724
0.1361758981299153
0.13619855917452242
0.13617589812991832
0.12807556015706165
0.12810008525388916
0.12807556015706442
0.12012228727674343
0.12014867058565296
0.12012228727674577
0.11232736874130811
0.11235560336780258
0.11232736874131019
0.1047020904729981
0.10473216823530529
0.10470209047299983
0.09725773415815436
0.09728964529222539
0.09725773415815586
0.09000557606403857
0.09003930884674191
0.09000557606403978
0.08295688547593441
0.0829924257394403
0.08295688547593533
0.07612292260776114
0.07616025310764421
0.0761229226077617
0.06951493577336983
0.06955403535779632
0.06951493577337017
0.0631441575048058
0.06318500000990786
0.06314415750480581
0.05702179914755945
0.057064351910907564
0.057021799147559116
0.05115904321623609
0.05120326505005743
0.051159043216235434
0.04556703239721138
0.04561287078559441
0.04556703239721043
0.04025685343248933
0.04030424059565853
0.04025685343248808
0.035239513022420246
0.03528836029953202
0.03523951302241871
0.03052590099649293
0.030576090693486255
0.030525900996491145
0.026126732668223653
0.026178106042282014
0.026126732668221624
0.0220524562492105
0.022104795537477774
0.022052456249208218
0.018313099978361804
0.018366101176515742
0.018313099978359296
0.014918012100208315
0.014971241935707088
0.014918012100205585
0.011875405149600476
0.011928228091626532
0.011875405149597581
0.00919152924570712
0.009242950258243331
0.009191529245704112
0.006869139591679083
0.0069174592321146295
0.006869139591676059
0.00490459402324659
0.0049464328131515346
0.004904594023243685
0.003282657875300819
0.0033126709005583733
0.0032826578752982428
0.0019714195986760305
0.001979255010012592
0.0019714195986740646
0.0009071385403997302
0.0009223120334696138
0.0009071385403987248
0.0
0.0
0.0
0.0
0.0
0.0
0.0
0.0
0.0
0.0004661657966513645
6.8084338316744435e-06
0.000466165796651392
0.0011017529047325496
0.0006105713702758861
0.0011017529047374986
0.002142448974696875
0.001669295074144522
0.002142448974712871
0.0036179754543747534
0.003152323106040694
0.0036179754544063795
0.005506329930628304
0.005047255254080587
0.005506329930679825
0.007791792884274847
0.007339360313831605
0.00779179288435203
0.01046160076541501
0.010016356182341115
0.010461600765522362
0.013504293357741223
0.0130666280111931
0.01350429335788288
0.016908626609070908
0.016478830573740423
0.016908626609250826
0.020663372520640128
0.020241656410767497
0.020663372520862085
0.024757279251169134
0.0243438003636558
0.0247572792514366
0.029179076988261835
0.02877395387247654
0.02917907698857815
0.03391748437709509
0.03352080683565833
0.03391748437746034
0.03896121268093091
0.03857304864949987
0.03896121268134157
0.04429896811509658
0.04391936861178471
0.04429896811554523
0.04991945328115062
0.049548456014245935
0.04991945328162697
0.05581136811944832
0.05544900015471195
0.05581136811995186
0.06196341057787527
0.06160969033442004
0.06196341057840561
0.06836427709404794
0.06801921585575785
0.06836427709460435
0.07500266294868176
0.0746662660213716
0.07500266294926382
0.08186726252792333
0.08153953013393361
0.08186726252853024
0.08894676952055688
0.0886276974961063
0.08894676952118823
0.0962298770681148
0.09591945741054325
0.09622987706876973
0.10370527788054712
0.10340349917989257
0.10370527788122501
0.11136166432641831
0.11106851210679118
0.11136166432711844
0.11918772850408332
0.11890318549386755
0.11918772850477515
0.127172162298478
0.12689620864380488
0.12717216229913267
0.13530365742718303
0.13503627085970926
0.13530365742779785
0.1435709054787978
0.14331206144635397
0.14357090547937018
0.15196259794625902
0.1517122697131316
0.1519625979467865
0.16046742625640015
0.16022558497489198
0.16046742625688062
0.16907408177885094
0.1688406965259361
0.16907408177928257
0.17777125574764674
0.1775462934406497
0.1777712557480281
0.1865476386989462
0.18633106381753933
0.18654763869927554
0.1953919187338047
0.1951836920355855
0.19539191873408057
0.20429277369388532
0.20409285640897062
0.20429277369410703
0.2132388617582881
0.21304724187066296
0.21323886175845447
0.2222187705642494
0.22203568128644247
0.22221877056436
0.23122117239272005
0.23104689908635528
0.23122117239277418
0.0004119303796504577
0.00041613204741697816
0.00041193037965140593
0.00014730046659775694
0.0001770063136602723
0.00014730046659795022
0.0004119303796543377
0.0004161320474201424
0.0004119303796534981
0.0011879594769108716
0.0012172641248098669
0.0011879594769128464
0.0007955393679379458
0.0008525021826885743
0.000795539367938338
0.0011879594769225654
0.0012172641248201542
0.0011879594769210768
0.0022971854266697943
0.002346639789314114
0.0022971854266723574
0.001871620584534372
0.0019368373910173238
0.001871620584534967
0.0022971854266931025
0.0023466397893355372
0.0022971854266914706
0.0037957806216112103
0.0038542098130837656
0.0037957806216141416
0.003355752004613654
0.0034233827518668535
0.0033557520046144525
0.003795780621650099
0.003854209813120525
0.003795780621648546
0.0056903678557620185
0.005751277369487504
0.005690367855765223
0.0052464881348395775
0.005313458367348703
0.00524648813484058
0.0056903678558206895
0.0057512773695439145
0.005690367855819299
0.007975867791849183
0.008036926415574287
0.007975867791852626
0.007533081126596553
0.007598381029953459
0.00753308112659776
0.007975867791933395
0.008036926415656183
0.007975867791932208
0.01064326674242737
0.010703530387881207
0.010643266742431013
0.010204337874092128
0.010267744903934495
0.010204337874093534
0.010643266742541605
0.01070353038799311
0.010643266742540652
0.013682354640399703
0.013741413869740206
0.013682354640403524
0.013248880766919864
0.013310357176761612
0.013248880766921475
0.013682354640548088
0.013741413869886266
0.013682354640547366
0.017082399902198505
0.017140031769855395
0.017082399902202516
0.016655375457550567
0.016714924616938374
0.01665537545755239
0.017082399902384988
0.017140031770039546
0.017082399902384516
0.02083242776184676
0.020888494310679795
0.020832427761850937
0.020412503221176593
0.020470129174019278
0.020412503221178605
0.02083242776207508
0.020888494310905854
0.020832427762074848
0.02492133313549299
0.024975742443935595
0.02492133313549731
0.024508951854309832
0.02456465640487381
0.024508951854312046
0.02492133313576667
0.02497574244420701
0.024921333135766673
0.029337937076977978
0.02939062590270201
0.029337937076982443
0.028933410551167327
0.02898719418673189
0.02893341055116974
0.0293379370773003
0.029390625903022077
0.029337937077300553
0.03407101655720784
0.034121940354025396
0.034071016557212494
0.033674568701918296
0.0337264315082023
0.03367456870192088
0.03407101655757892
0.03412194035439428
0.0340710165575794
0.03910932122857285
0.039158447959356635
0.03910932122857764
0.038721115659774444
0.03877105763436848
0.03872111565977719
0.0391093212289892
0.03915844795977076
0.039109321228989906
0.044441583210902434
0.04448888937118752
0.04444158321090737
0.044061740744603305
0.04410976187909883
0.044061740744606274
0.044441583211356515
0.044488889371639535
0.04444158321135749
0.05005652301323859
0.05010199104068764
0.05005652301324368
0.049685133263001426
0.04973123355344756
0.049685133263004645
0.0500565230137203
0.05010199104116724
0.05005652301372153
0.055942853236651734
0.05598646979251275
0.055942853236656986
0.05557998251805074
0.0556241619632688
0.05557998251805418
0.05594285323716045
0.05598646979301948
0.05594285323716197
0.062089280962066506
0.06213103576782883
0.06208928096207194
0.061734977812262344
0.06177723641202077
0.061734977812265994
0.06208928096260185
0.062131035768362194
0.06208928096260366
0.0684845093335613
0.06852439436673209
0.06848450933356687
0.06813880844818265
0.06817914620247222
0.06813880844818646
0.06848450933412253
0.06852439436729141
0.06848450933412462
0.07511723863456968
0.07515524756167416
0.07511723863457542
0.07478016372842436
0.07481858063726071
0.07478016372842844
0.07511723863515635
0.07515524756225894
0.07511723863515866
0.08197616703574609
0.08201229480540054
0.08197616703575189
0.08164773295562965
0.0816842290190211
0.0816477329556339
0.08197616703635743
0.08201229480601017
0.08197616703636003
0.08904999112507545
0.0890842336712505
0.08904999112508136
0.08873020543244882
0.08876478065039826
0.08873020543245318
0.089049991125711
0.08908423367188437
0.0890499911257138
0.09632740629044884
0.09635976031295773
0.09632740629045494
0.09601627046153353
0.09604892483404265
0.09601627046153809
0.09632740629110795
0.09635976031361515
0.09632740629111096
0.10379710700034875
0.1038275698003388
0.10379710700035509
0.1034946173455359
0.10352535087260889
0.10349461734554068
0.10379710700103076
0.10382756980101898
0.10379710700103399
0.11144778701294072
0.11147635636813634
0.11144778701294718
0.11115393538711041
0.11118274806875866
0.11115393538711549
0.11144778701364459
0.11147635636883872
0.11144778701364814
0.11926813953408355
0.11929481360313979
0.11926813953409009
0.11898291388892451
0.11900980572516605
0.11898291388892972
0.11926813953477884
0.11929481360383355
0.11926813953478266
0.12724685733830984
0.12727163458671584
0.12724685733831664
0.12697024215368669
0.12699521314448706
0.12697024215369218
0.127246857338968
0.1272716345873726
0.1272468573389721
0.13537263286271706
0.13539551200471336
0.13537263286272389
0.135104609484188
0.13512765962916173
0.13510460948419353
0.13537263286333523
0.13539551200532993
0.13537263286333948
0.14363415828066467
0.14365513823289805
0.14363415828067175
0.14337470518320056
0.14339583448056945
0.14337470518320639
0.1436341582812403
0.14365513823347237
0.14363415828124484
0.15202012555974453
0.15203920540310048
0.1520201255597517
0.15176921855251074
0.1517884269970109
0.1517692185525168
0.15202012556027508
0.15203920540362972
0.15202012556027994
0.16051922650634137
0.16053640545567507
0.16051922650634873
0.16027683888836786
0.16029412647050953
0.16027683888837407
0.16051922650682485
0.16053640545615727
0.16051922650682998
0.16912015279503045
0.16913543018728588
0.1691201527950378
0.16888625546827926
0.1689016222018178
0.16888625546828565
0.16912015279546497
0.16913543018771962
0.16912015279547046
0.17781159599134758
0.17782497137657396
0.17781159599135504
0.17758615751298287
0.1775996035754463
0.1775861575129893
0.1778115959917318
0.17782497137695713
0.1778115959917372
0.18658224756726235
0.1865937211098319
0.1865822475672698
0.18636523416401818
0.18637676056780106
0.18636523416402487
0.18658224756759442
0.186593721110163
0.1865822475676
0.19542079933775405
0.1954303736473676
0.1954207993377613
0.19521217449838152
0.19522178478756555
0.19521217449838807
0.19542079933803244
0.19543037364764498
0.1954207993380382
0.2043159439528371
0.2043236278699697
0.20431594395284447
0.2041156719837463
0.20412337874707315
0.2041156719837528
0.204315943953061
0.20432362787019287
0.20431594395306668
0.21325638670198072
0.2132622103486987
0.21325638670198838
0.21306444698903867
0.2130702847687501
0.21306444698904545
0.2132563867021493