# vtk DataFile Version 2.0
mesh vtk view
ASCII
DATASET UNSTRUCTURED_GRID
POINTS 1025 double
0.0 0.0 0.0
796.2900070779064 -49.615299348277965 -0.0011759319340610918
803.7099929221016 30.384700651722007 0.001175932045096983
0.0 80.0 0.0
0.0 0.0 80.0
796.2900070778984 -49.61529934828092 80.00117593204224
803.7099929220939 30.384700651719044 79.99882406806883
0.0 80.0 80.0
19.829355443496375 -0.06631959202337027 -0.09773523008405355
39.65892245085157 -0.18302311632658783 -0.11321191867050359
59.489002684656846 -0.400171026943189 -0.11665969957856805
79.31995806813943 -0.7056720546111255 -0.1142485789293396
99.15442578222137 -1.096114988405351 -0.11098340791983095
118.99319869626083 -1.56839467564628 -0.10770073121168654
138.83657977901632 -2.120139741115589 -0.10448904792567466
158.6846316693831 -2.749011053330648 -0.10131105354018623
178.53736301586054 -3.4526801418994686 -0.09814326947047655
198.39477183751075 -4.2288122086213304 -0.09497749249723442
218.25685655262853 -5.075070532994471 -0.09181180034436508
238.12361653487025 -5.989117673378908 -0.08864597366548603
257.99505162291604 -6.96861607456361 -0.085480073938995
277.8711617919627 -8.01122817584577 -0.08231415035852972
297.75194704419465 -9.114616426390343 -0.07914822154058998
317.63740738283207 -10.276443280171742 -0.07598229225544406
337.52754280925717 -11.494371192744447 -0.0728163632007194
357.42235332386036 -12.766062619994116 -0.06965043429905388
377.32183892671117 -14.089180017833383 -0.06648450545180318
397.22599961780963 -15.461385842158393 -0.06331857661763399
417.1348353971495 -16.880342548855026 -0.06015264778500583
437.0483462647277 -18.34371259380559 -0.0569867189517983
456.96653222054283 -19.849158432891553 -0.053820790117835506
476.88939326459354 -21.394342521994137 -0.05065486128347473
496.81692939687554 -22.976927316993184 -0.047488932452329116
516.7491406174569 -24.59457527376943 -0.04432300364229556
536.6860269263352 -26.244948848182975 -0.04115707491238026
556.6275883235666 -27.925710496072497 -0.03799114638760675
576.573824809754 -29.634522673339532 -0.034825218090381097
596.5247363868383 -31.369047836435396 -0.03165928872889579
616.4803230588047 -33.12694844395293 -0.02849335084557965
636.4405848250293 -34.90588696142562 -0.025327377935010713
656.4055216398542 -36.70352586186193 -0.0221613063807299
676.3751332457322 -38.51752760882239 -0.01899509685633534
696.349418809696 -40.34555423069925 -0.01582924442965986
716.3283758659039 -42.185265738160716 -0.01266792791520111
736.3119993783885 -44.034307040316676 -0.009528585506855614
756.3002578823235 -45.890297236366166 -0.006491357913201422
776.2930211422397 -47.75083881973894 -0.0035584100910522874
798.1485747015361 -29.613580874891863 -2.2072696912070318e-05
799.9999999999984 -9.61231658626226 5.5538937334472894e-11
801.8514252984656 10.386419125114834 2.207280796594329e-05
783.706978857801 32.24916118023764 0.0035584101981500017
763.6997421177501 34.10970276358712 0.006491358016321591
743.6880006217183 35.965692959613484 0.009528585606013213
723.6716241342358 37.81473426174658 0.012667928010383146
703.650581190477 39.654445769185436 0.015829244520830583
683.6248667544742 41.482472391040176 0.018995096943550054
663.5944783603856 43.296474137979125 0.02216130646402446
643.559415175244 45.09411303839445 0.025327378014329358
623.5196769415024 46.87305155584695 0.028493350921008374
603.4752636135025 48.630952163345 0.03165928880040842
583.4261751906207 50.365477326422294 0.03482521815802042
563.3724116768421 52.074289503671736 0.03799114645140275
543.3139730741075 53.75505115154466 0.04115707497236572
523.2508593830202 55.405424725942865 0.044323003698552244
503.1830706036353 57.023072682715565 0.04748893250491966
483.1106067359507 58.60565747772375 0.05065486133247324
463.03346778003464 60.15084156683578 0.05382079016333134
442.95165373588316 61.656287405931494 0.056986718993868396
422.86516460349435 63.11965745089207 0.06015264782373187
402.7740003828675 64.53861415759894 0.0633185766531079
382.67816107399915 65.91081998193448 0.06648450548413301
362.5776466768832 67.23393737978452 0.06965043432834829
342.4724571915194 68.50562880704518 0.07281636322707848
322.36259261797755 69.7235567196291 0.07598229227899446
302.248052956648 70.88538357342193 0.07914822156144803
282.12883820883695 71.98877182398218 0.08231415037682739
262.00494837777364 73.03138392528308 0.08548007395488601
241.87638346575557 74.01088232648799 0.08864597367912246
221.74314344795778 74.92492946689258 0.09181180035590727
201.60522816303586 75.77118779128453 0.09497749250683912
181.4626369846462 76.54731985802373 0.09814326947829553
161.31536833108345 77.25098894660835 0.10131105354638824
141.16342022141006 77.87986025883758 0.10448904793043473
121.00680130412532 78.43160532431936 0.10770073121518102
100.84557421812156 78.9038850115709 0.11098340792224821
80.68004193213051 79.29432794537337 0.11424857893088369
60.51099731553718 79.59982897304783 0.11665969957949679
40.34107754927524 79.81697688366935 0.11321191867111643
20.170644556569606 79.93368040797554 0.0977352300846856
0.0 60.0 0.0
0.0 40.0 0.0
0.0 20.0 0.0
19.82935544349597 -0.06631959202367506 80.09773523008414
39.65892245085076 -0.18302311632701587 80.11321191867079
59.48900268465564 -0.4001710269437094 80.11665969957927
79.31995806813782 -0.7056720546117229 80.11424857893068
99.15442578221936 -1.096114988406024 80.11098340792202
118.99319869625846 -1.5683946756470275 80.1077007312149
138.8365797790136 -2.1201397411164145 80.10448904793012
158.68463166938 -2.7490110533315524 80.10131105354601
178.5373630158571 -3.452680141900446 80.09814326947787
198.394771837507 -4.228812208622378 80.09497749250637
218.25685655262447 -5.075070532995598 80.0918118003554
238.12361653486587 -5.989117673380102 80.08864597367858
257.9950516229114 -6.968616074564878 80.08548007395429
277.8711617919578 -8.011228175847107 80.08231415037618
297.7519470441894 -9.114616426391759 80.07914822156071
317.6374073828266 -10.27644328017323 80.07598229227818
337.52754280925143 -11.494371192746037 80.07281636322618
357.4223533238544 -12.76606261999577 80.06965043432737
377.32183892670497 -14.089180017835117 80.06648450548309
397.22599961780327 -15.461385842160206 80.06331857665198
417.134835397143 -16.880342548856884 80.06015264782253
437.048346264721 -18.34371259380752 80.05698671899259
456.96653222053595 -19.849158432893553 80.05382079016199
476.8893932645865 -21.394342521996222 80.05065486133107
496.8169293968684 -22.976927316995337 80.04748893250341
516.7491406174496 -24.594575273771664 80.04432300369693
536.6860269263278 -26.244948848185306 80.04115707497061
556.627588323559 -27.925710496074903 80.03799114644953
576.5738248097464 -29.63452267334196 80.03482521815604
596.5247363868307 -31.369047836437918 80.0316592887983
616.480323058797 -33.12694844395552 80.02849335091878
636.4405848250216 -34.90588696142829 80.02532737801204
656.4055216398465 -36.703525861864605 80.02216130646163
676.3751332457243 -38.517527608825134 80.01899509694107
696.3494188096882 -40.34555423070197 80.0158292445183
716.3283758658961 -42.18526573816341 80.01266792800776
736.3119993783806 -44.0343070403195 80.00952858560329
756.3002578823157 -45.89029723636902 80.00649135801348
776.2930211422317 -47.75083881974186 80.0035584101953
798.1485747015282 -29.613580874894804 80.00002207280653
799.9999999999905 -9.612316586265223 80.00000000005552
801.8514252984578 10.386419125111878 79.99997792730451
783.7069788577932 32.249161180234694 79.99644158991188
763.6997421177423 34.10970276358421 79.99350864208976
743.6880006217104 35.96569295961061 79.9904714144961
723.671624134228 37.8147342617438 79.98733207208771
703.6505811904692 39.65444576918272 79.98417075557327
683.6248667544663 41.48247239103747 79.98100490314661
663.5944783603778 43.29647413797645 79.97783869362219
643.5594151752363 45.0941130383919 79.97467262206789
623.5196769414947 46.87305155584443 79.9715066491573
603.4752636134949 48.63095216334255 79.96834071127397
583.4261751906132 50.365477326419935 79.96517478191247
563.3724116768346 52.074289503669426 79.96200885361522
543.3139730741001 53.75505115154249 79.95884292509038
523.2508593830129 55.405424725940776 79.95567699636041
503.18307060362815 57.0230726827136 79.9525110675503
483.11060673594363 58.60565747772186 79.94934513871908
463.03346778002776 60.150841566834 79.94617920988463
442.9516537358764 61.65628740592978 79.94301328105057
422.8651646034878 63.119657450890436 79.93984735221728
402.7740003828611 64.53861415759741 79.93668142338457
382.67816107399295 65.91081998193303 79.9335154945503
362.57764667687724 67.23393737978317 79.93034956570297
342.47245719151374 68.50562880704393 79.92718363680122
322.3625926179721 69.72355671962795 79.9240177077464
302.24805295664277 70.88538357342088 79.92085177846116
282.128838208832 71.98877182398121 79.91768584964312
262.004948377769 73.0313839252822 79.91451992606255
241.8763834657512 74.01088232648719 79.91135402633596
221.7431434479537 74.92492946689188 79.90818819965695
201.60522816303208 75.77118779128391 79.90502250750397
181.46263698464276 76.5473198580232 79.9018567305306
161.31536833108035 77.25098894660792 79.89868894646078
141.16342022140734 77.87986025883724 79.89551095207517
121.00680130412296 78.43160532431911 79.89229926878903
100.84557421811957 78.90388501157075 79.88901659208076
80.6800419321289 79.2943279453733 79.88575142107112
60.51099731553597 79.59982897304786 79.88334030042171
40.34107754927443 79.81697688366947 79.88678808132948
20.1706445565692 79.9336804079757 79.90226476991555
0.0 60.0 80.0
0.0 40.0 80.0
0.0 20.0 80.0
0.0 0.0 20.0
0.0 0.0 40.0
0.0 0.0 60.0
796.2886061715839 -49.616444382226526 19.99924463108484
796.2882942080137 -49.61690903062328 40.00000000005407
796.2886061715799 -49.616444382228046 60.00075536902334
803.7113938284202 30.38355561777344 20.000755369026223
803.7117057919863 30.383090969376724 40.000000000056986
803.7113938284164 30.383555617771947 59.99924463108773
0.0 80.0 20.0
0.0 80.0 40.0
0.0 80.0 60.0
[...]
POINT_DATA 1025
SCALARS CellEntityIds float 1
LOOKUP_TABLE default
0.0
0.24074425986738604
0.24074425986738907
0.0
0.0
0.24074425986740317
0.24074425986740053
0.0
0.001004192891813903
0.0019514360400759035
0.0031908514725120895
0.004774124164724091
0.006720027353169445
0.009033120859295677
0.011712733297831525
0.014754113334865699
0.018149960145209282
0.021891421461382028
0.02596873743662169
0.030371607228835657
0.03508939873915365
0.04011127023476055
0.04542624329606068
0.051023247976365156
0.056891151593606346
0.06301877756074192
0.06939491798467823
0.07600834227096114
0.08284780311215043
0.08990204072813242
0.0971597859169771
0.10460976228269571
0.11224068788449405
0.12004127647358906
0.1280002384319222
0.13610628149301462
0.14434811130194042
0.152714431856604
0.16119394586368405
0.16977535504461094
0.1784473603832527
0.1871986623018334
0.19601795890464727
0.20489393887711976
0.2138152187538368
0.22277030038753623
0.2317476403859368
0.2402328076846061
0.24005959638484575
0.2402328076846063
0.23174764038605278
0.22277030038776477
0.21381521875417708
0.2048939388775705
0.1960179589052072
0.1871986623025002
0.17844736038402348
0.16977535504548305
0.1611939458646537
0.1527144318576677
0.1443481113030938
0.136106281494253
0.12800023843324063
0.12004127647498156
0.11224068788590369
0.1046097622840614
0.09715978591829728
0.08990204072940562
0.08284780311337543
0.0760083422721368
0.06939491798580319
0.06301877756181495
0.05689115159462647
0.051023247977331224
0.04542624329697172
0.04011127023559618
0.03508939873989906
0.030371607229483844
0.02596873743717294
0.021891421461842926
0.018149960145586903
0.014754113335167525
0.011712733298065398
0.009033120859469897
0.0067200273532929235
0.004774124164808187
0.0031908514725647024
0.0019514360401042515
0.0010041928918256926
0.0
0.0
0.0
0.001004192891816179
0.0019514360400805235
0.0031908514725187513
0.0047741241647322715
0.006720027353178736
0.009033120859305802
0.011712733297842311
0.01475411333487703
0.01814996014522104
0.02189142146139414
0.02596873743663416
0.03037160722884839
0.03508939873916666
0.040111270234773795
0.0454262432960742
0.051023247976378895
0.056891151593620445
0.06301877756075619
0.06939491798469274
0.07600834227097587
0.08284780311216525
0.08990204072814742
0.0971597859169923
0.10460976228271114
0.11224068788450964
0.12004127647360487
0.1280002384319383
0.13610628149303095
0.14434811130195666
0.15271443185662056
0.1611939458637008
0.16977535504462785
0.17844736038326955
0.18719866230185037
0.19601795890466397
0.20489393887713617
0.21381521875385368
0.22277030038755313
0.2317476403859538
0.2402328076846217
0.24005959638486007
0.24023280768461922
0.23174764038606402
0.2227703003877757
0.21381521875418769
0.20489393887758045
0.19601795890521673
0.18719866230250948
0.17844736038403244
0.16977535504549118
0.16119394586466157
0.15271443185767508
0.14434811130310052
0.13610628149425927
0.1280002384332461
0.12004127647498643
0.11224068788590782
0.10460976228406492
0.09715978591830016
0.08990204072940798
0.08284780311337722
0.07600834227213793
0.06939491798580372
0.06301877756181487
0.056891151594625704
0.05102324797732984
0.045426243296969745
0.040111270235593556
0.03508939873989591
0.030371607229480138
0.025968737437168685
0.02189142146183818
0.018149960145581633
0.014754113335161814
0.011712733298059313
0.009033120859463539
0.006720027353286474
0.004774124164801921
0.00319085147255906
0.0019514360400998993
0.0010041928918233093
0.0
0.0
0.0
0.0
0.0
0.0
0.24075029043204435
0.24075264504170085
0.2407502904320531
0.240750290432046
0.24075264504170088
0.2407502904320518
0.0
0.0
0.0
0.0004661657966493285
6.808433831272397e-06
0.00046616579665365965
0.0011017529047283568
0.0006105713702751013
0.0011017529047410936
0.0021424489746915227
0.0016692950741433352
0.002142448974716591
0.0036179754543687226
0.0031523231060390992
0.0036179754544098048
0.0055063299306217705
0.00504725525407859
0.0055063299306828285
0.0077917928842678895
0.007339360313829196
0.007791792884354567
0.010461600765407666
0.010016356182338289
0.010461600765524406
0.013504293357733496
0.013066628011189862
0.01350429335788442
0.016908626609062866
0.016478830573736794
0.01690862660925187
0.020663372520631766
0.02024165641076346
0.020663372520862613
0.02475727925116046
0.02434380036365136
0.02475727925143664
0.029179076988252842
0.028773953872471725
0.029179076988577697
0.033917484377085826
0.03352080683565313
0.03391748437745941
0.03896121268092137
0.03857304864949431
0.03896121268134015
0.044298968115086754
0.04391936861177873
0.04429896811554329
0.0499194532811404
0.04954845601423955
0.049919453281624476
0.05581136811943776
0.0554490001547051
0.05581136811994883
0.061963410577864426
0.06160969033441279
0.06196341057840205
0.06836427709403675
0.06801921585575012
0.06836427709460025
0.0750026629486703
0.07466626602136356
0.07500266294925924
0.08186726252791161
0.08153953013392516
0.08186726252852518
0.08894676952054495
0.0886276974960974
0.08894676952118268
0.09622987706810258
0.09591945741053418
0.09622987706876376
0.10370527788053452
0.10340349917988298
0.10370527788121853
0.11136166432640544
0.11106851210678119
0.11136166432711139
0.11918772850407025
0.11890318549385703
0.11918772850476748
0.1271721622984645
0.12689620864379403
0.12717216229912448
0.1353036574271692
0.13503627085969797
0.13530365742778902
0.14357090547878382
0.14331206144634237
0.14357090547936102
0.15196259794624467
0.15171226971311944
0.1519625979467767
0.16046742625638558
0.16022558497487946
0.1604674262568704
0.16907408177883607
0.16884069652592332
0.16907408177927213
0.17777125574763175
0.1775462934406367
0.17777125574801705
0.18654763869893118
0.18633106381752612
0.18654763869926438
0.1953919187337899
0.19518369203557243
0.19539191873406925
0.20429277369387047
0.20409285640895727
0.20429277369409538
0.21323886175827303
0.2130472418706493
0.21323886175844223
0.22221877056423409
0.22203568128642856
0.22221877056434752
0.23122117239270437
0.23104689908634124
0.2312211723927616
0.000907138540388485
0.0009223120334594775
0.0009071385403896857
0.001971419598647954
0.001979255009986332
0.001971419598650335
0.003282657875249633
0.0033126709005096167
0.0032826578752529673
0.0049045940231650575
0.004946432813073096
0.00490459402316912
0.006869139591558921
0.00691745923199804
0.006869139591563539
0.009191529245536666
0.009242950258076761
0.00919152924554171
0.011875405149370681
0.011928228091400803
0.011875405149376054
0.014918012099910795
0.014971241935413748
0.014918012099916436
0.01831309997798863
0.018366101176146815
0.018313099977994497
0.02205245624875414
0.022104795537025677
0.02205245624876021
0.026126732667677028
0.026178106041739636
0.02612673266768322
0.030525900995849398
0.030576090692847013
0.03052590099585578
0.03523951302167955
0.03528836029879559
0.03523951302168607
0.04025685343165838
0.040304240594831786
0.04025685343166502
0.045567032396304996
0.045612870784692096
0.04556703239631174
0.05115904321527464
0.05120326504910002
0.05115904321528151
0.05702179914654387
0.05706435190989594
0.05702179914655089
0.06314415750373722
0.06318500000884314
0.06314415750374436
0.06951493577224933
0.06955403535667956
0.06951493577225652
0.07612292260658989
0.0761602531064765
0.07612292260659723
0.08295688547471365
0.08299242573822302
0.082956885474721
0.09000557606276949
0.09003930884547624
0.09000557606277697
0.09725773415683822
0.09728964529091268
0.09725773415684587
0.10470209047163637
0.10473216823394695
0.10470209047164408
0.11232736873990234
0.11235560336639998
0.11232736873991021
0.12012228727535451
0.1201486705842672
0.12012228727536242
0.12807556015574686
0.12810008525257735
0.12807556015575497
0.13617589812868022
0.1361985591732903
0.13617589812868836
0.14441200931279383
0.1444328013338093
0.144412009312802
0.15277259974648033
0.1527915184915005
0.15277259974648866
0.16124637382163068
0.16126341563234187
0.16124637382163903
0.16982203462951231
0.16983719633764552
0.16982203462952056
0.17848828421920723
0.17850156306799617
0.17848828421921573
0.18723382380441692
0.1872452176296525
0.18723382380442516
0.19604735334682863
0.19605686161932012
0.19604735334683687
0.204917570858196
0.20492520016172625
0.20491757085820436
0.21383315239223666
0.2138389276891899
0.21383315239224512
0.22278278890601255
0.22278678990819856
0.22278278890602102
0.2317554065218708
0.23175810263210778
0.23175540652187937
0.2402384126962702
0.2402413339426246
0.24023841269627833
0.24006470886177983
0.24006804123148362
0.24006470886178718
0.24023841269626983
0.24024133394262356
0.24023841269627655
0.23175540652198534
0.23175810263222069
0.23175540652199092
0.22278278890623932
0.22278678990842396
0.22278278890624492
0.21383315239257528
0.2138389276895268
0.21383315239258047
0.20491757085864507
0.20492520016217375
0.20491757085864998
0.1960473533473863
0.19605686161987596
0.19604735334739115
0.1872338238050813
0.18724521763031501
0.18723382380508585
0.17848828421997578
0.17850156306876264
0.17848828421998025
0.16982203463038156
0.16983719633851274
0.16982203463038595
0.16124637382259752
0.16126341563330637
0.16124637382260157
0.15277259974754098
0.15279151849255865
0.1527725997475447
0.14441200931394393
0.14443280133495684
0.14441200931394724
0.1361758981299153
0.13619855917452242
0.13617589812991832
0.12807556015706165
0.12810008525388916
0.12807556015706442
0.12012228727674343
0.12014867058565296
0.12012228727674577
0.11232736874130811
0.11235560336780258
0.11232736874131019
0.1047020904729981
0.10473216823530529
0.10470209047299983
0.09725773415815436
0.09728964529222539
0.09725773415815586
0.09000557606403857
0.09003930884674191
0.09000557606403978
0.08295688547593441
0.0829924257394403
0.08295688547593533
0.07612292260776114
0.07616025310764421
0.0761229226077617
0.06951493577336983
0.06955403535779632
0.06951493577337017
0.0631441575048058
0.06318500000990786
0.06314415750480581
0.05702179914755945
0.057064351910907564
0.057021799147559116
0.05115904321623609
0.05120326505005743
0.051159043216235434
0.04556703239721138
0.04561287078559441
0.04556703239721043
0.04025685343248933
0.04030424059565853
0.04025685343248808
0.035239513022420246
0.03528836029953202
0.03523951302241871
0.03052590099649293
0.030576090693486255
0.030525900996491145
0.026126732668223653
0.026178106042282014
0.026126732668221624
0.0220524562492105
0.022104795537477774
0.022052456249208218
0.018313099978361804
0.018366101176515742
0.018313099978359296
0.014918012100208315
0.014971241935707088
0.014918012100205585
0.011875405149600476
0.011928228091626532
0.011875405149597581
0.00919152924570712
0.009242950258243331
0.009191529245704112
0.006869139591679083
0.0069174592321146295
0.006869139591676059
0.00490459402324659
0.0049464328131515346
0.004904594023243685
0.003282657875300819
0.0033126709005583733
0.0032826578752982428
0.0019714195986760305
0.001979255010012592
0.0019714195986740646
0.0009071385403997302
0.0009223120334696138
0.0009071385403987248
0.0
0.0
0.0
0.0
0.0
0.0
0.0
0.0
0.0
0.0004661657966513645
6.8084338316744435e-06
0.000466165796651392
0.0011017529047325496
0.0006105713702758861
0.0011017529047374986
0.002142448974696875
0.001669295074144522
0.002142448974712871
0.0036179754543747534
0.003152323106040694
0.0036179754544063795
0.005506329930628304
0.005047255254080587
0.005506329930679825
0.007791792884274847
0.007339360313831605
0.00779179288435203
0.01046160076541501
0.010016356182341115
0.010461600765522362
0.013504293357741223
0.0130666280111931
0.01350429335788288
0.016908626609070908
0.016478830573740423
0.016908626609250826
0.020663372520640128
0.020241656410767497
0.020663372520862085
0.024757279251169134
0.0243438003636558
0.0247572792514366
0.029179076988261835
0.02877395387247654
0.02917907698857815
0.03391748437709509
0.03352080683565833
0.03391748437746034
0.03896121268093091
0.03857304864949987
0.03896121268134157
0.04429896811509658
0.04391936861178471
0.04429896811554523
0.04991945328115062
0.049548456014245935
0.04991945328162697
0.05581136811944832
0.05544900015471195
0.05581136811995186
0.06196341057787527
0.06160969033442004
0.06196341057840561
0.06836427709404794
0.06801921585575785
0.06836427709460435
0.07500266294868176
0.0746662660213716
0.07500266294926382
0.08186726252792333
0.08153953013393361
0.08186726252853024
0.08894676952055688
0.0886276974961063
0.08894676952118823
0.0962298770681148
0.09591945741054325
0.09622987706876973
0.10370527788054712
0.10340349917989257
0.10370527788122501
0.11136166432641831
0.11106851210679118
0.11136166432711844
0.11918772850408332
0.11890318549386755
0.11918772850477515
0.127172162298478
0.12689620864380488
0.12717216229913267
0.13530365742718303
0.13503627085970926
0.13530365742779785
0.1435709054787978
0.14331206144635397
0.14357090547937018
0.15196259794625902
0.1517122697131316
0.1519625979467865
0.16046742625640015
0.16022558497489198
0.16046742625688062
0.16907408177885094
0.1688406965259361
0.16907408177928257
0.17777125574764674
0.1775462934406497
0.1777712557480281
0.1865476386989462
0.18633106381753933
0.18654763869927554
0.1953919187338047
0.1951836920355855
0.19539191873408057
0.20429277369388532
0.20409285640897062
0.20429277369410703
0.2132388617582881
0.21304724187066296
0.21323886175845447
0.2222187705642494
0.22203568128644247
0.22221877056436
0.23122117239272005
0.23104689908635528
0.23122117239277418
0.0004119303796504577
0.00041613204741697816
0.00041193037965140593
0.00014730046659775694
0.0001770063136602723
0.00014730046659795022
0.0004119303796543377
0.0004161320474201424
0.0004119303796534981
0.0011879594769108716
0.0012172641248098669
0.0011879594769128464
0.0007955393679379458
0.0008525021826885743
0.000795539367938338
0.0011879594769225654
0.0012172641248201542
0.0011879594769210768
0.0022971854266697943
0.002346639789314114
0.0022971854266723574
0.001871620584534372
0.0019368373910173238
0.001871620584534967
0.0022971854266931025
0.0023466397893355372
0.0022971854266914706
0.0037957806216112103
0.0038542098130837656
0.0037957806216141416
0.003355752004613654
0.0034233827518668535
0.0033557520046144525
0.003795780621650099
0.003854209813120525
0.003795780621648546
0.0056903678557620185
0.005751277369487504
0.005690367855765223
0.0052464881348395775
0.005313458367348703
0.00524648813484058
0.0056903678558206895
0.0057512773695439145
0.005690367855819299
0.007975867791849183
0.008036926415574287
0.007975867791852626
0.007533081126596553
0.007598381029953459
0.00753308112659776
0.007975867791933395
0.008036926415656183
0.007975867791932208
0.01064326674242737
0.010703530387881207
0.010643266742431013
0.010204337874092128
0.010267744903934495
0.010204337874093534
0.010643266742541605
0.01070353038799311
0.010643266742540652
0.013682354640399703
0.013741413869740206
0.013682354640403524
0.013248880766919864
0.013310357176761612
0.013248880766921475
0.013682354640548088
0.013741413869886266
0.013682354640547366
0.017082399902198505
0.017140031769855395
0.017082399902202516
0.016655375457550567
0.016714924616938374
0.01665537545755239
0.017082399902384988
0.017140031770039546
0.017082399902384516
0.02083242776184676
0.020888494310679795
0.020832427761850937
0.020412503221176593
0.020470129174019278
0.020412503221178605
0.02083242776207508
0.020888494310905854
0.020832427762074848
0.02492133313549299
0.024975742443935595
0.02492133313549731
0.024508951854309832
0.02456465640487381
0.024508951854312046
0.02492133313576667
0.02497574244420701
0.024921333135766673
0.029337937076977978
0.02939062590270201
0.029337937076982443
0.028933410551167327
0.02898719418673189
0.02893341055116974
0.0293379370773003
0.029390625903022077
0.029337937077300553
0.03407101655720784
0.034121940354025396
0.034071016557212494
0.033674568701918296
0.0337264315082023
0.03367456870192088
0.03407101655757892
0.03412194035439428
0.0340710165575794
0.03910932122857285
0.039158447959356635
0.03910932122857764
0.038721115659774444
0.03877105763436848
0.03872111565977719
0.0391093212289892
0.03915844795977076
0.039109321228989906
0.044441583210902434
0.04448888937118752
0.04444158321090737
0.044061740744603305
0.04410976187909883
0.044061740744606274
0.044441583211356515
0.044488889371639535
0.04444158321135749
0.05005652301323859
0.05010199104068764
0.05005652301324368
0.049685133263001426
0.04973123355344756
0.049685133263004645
0.0500565230137203
0.05010199104116724
0.05005652301372153
0.055942853236651734
0.05598646979251275
0.055942853236656986
0.05557998251805074
0.0556241619632688
0.05557998251805418
0.05594285323716045
0.05598646979301948
0.05594285323716197
0.062089280962066506
0.06213103576782883
0.06208928096207194
0.061734977812262344
0.06177723641202077
0.061734977812265994
0.06208928096260185
0.062131035768362194
0.06208928096260366
0.0684845093335613
0.06852439436673209
0.06848450933356687
0.06813880844818265
0.06817914620247222
0.06813880844818646
0.06848450933412253
0.06852439436729141
0.06848450933412462
0.07511723863456968
0.07515524756167416
0.07511723863457542
0.07478016372842436
0.07481858063726071
0.07478016372842844
0.07511723863515635
0.07515524756225894
0.07511723863515866
0.08197616703574609
0.08201229480540054
0.08197616703575189
0.08164773295562965
0.0816842290190211
0.0816477329556339
0.08197616703635743
0.08201229480601017
0.08197616703636003
0.08904999112507545
0.0890842336712505
0.08904999112508136
0.08873020543244882
0.08876478065039826
0.08873020543245318
0.089049991125711
0.08908423367188437
0.0890499911257138
0.09632740629044884
0.09635976031295773
0.09632740629045494
0.09601627046153353
0.09604892483404265
0.09601627046153809
0.09632740629110795
0.09635976031361515
0.09632740629111096
0.10379710700034875
0.1038275698003388
0.10379710700035509
0.1034946173455359
0.10352535087260889
0.10349461734554068
0.10379710700103076
0.10382756980101898
0.10379710700103399
0.11144778701294072
0.11147635636813634
0.11144778701294718
0.11115393538711041
0.11118274806875866
0.11115393538711549
0.11144778701364459
0.11147635636883872
0.11144778701364814
0.11926813953408355
0.11929481360313979
0.11926813953409009
0.11898291388892451
0.11900980572516605
0.11898291388892972
0.11926813953477884
0.11929481360383355
0.11926813953478266
0.12724685733830984
0.12727163458671584
0.12724685733831664
0.12697024215368669
0.12699521314448706
0.12697024215369218
0.127246857338968
0.1272716345873726
0.1272468573389721
0.13537263286271706
0.13539551200471336
0.13537263286272389
0.135104609484188
0.13512765962916173
0.13510460948419353
0.13537263286333523
0.13539551200532993
0.13537263286333948
0.14363415828066467
0.14365513823289805
0.14363415828067175
0.14337470518320056
0.14339583448056945
0.14337470518320639
0.1436341582812403
0.14365513823347237
0.14363415828124484
0.15202012555974453
0.15203920540310048
0.1520201255597517
0.15176921855251074
0.1517884269970109
0.1517692185525168
0.15202012556027508
0.15203920540362972
0.15202012556027994
0.16051922650634137
0.16053640545567507
0.16051922650634873
0.16027683888836786
0.16029412647050953
0.16027683888837407
0.16051922650682485
0.16053640545615727
0.16051922650682998
0.16912015279503045
0.16913543018728588
0.1691201527950378
0.16888625546827926
0.1689016222018178
0.16888625546828565
0.16912015279546497
0.16913543018771962
0.16912015279547046
0.17781159599134758
0.17782497137657396
0.17781159599135504
0.17758615751298287
0.1775996035754463
0.1775861575129893
0.1778115959917318
0.17782497137695713
0.1778115959917372
0.18658224756726235
0.1865937211098319
0.1865822475672698
0.18636523416401818
0.18637676056780106
0.18636523416402487
0.18658224756759442
0.186593721110163
0.1865822475676
0.19542079933775405
0.1954303736473676
0.1954207993377613
0.19521217449838152
0.19522178478756555
0.19521217449838807
0.19542079933803244
0.19543037364764498
0.1954207993380382
0.2043159439528371
0.2043236278699697
0.20431594395284447
0.2041156719837463
0.20412337874707315
0.2041156719837528
0.204315943953061
0.20432362787019287
0.20431594395306668
0.21325638670198072
0.2132622103486987
0.21325638670198838
0.21306444698903867
0.2130702847687501
0.21306444698904545
0.2132563867021493