# vtk DataFile Version 2.0
mesh vtk view
ASCII
DATASET UNSTRUCTURED_GRID
POINTS 1025 double
0.0 0.0 0.0
799.9775681738671 -0.29999026733601447 -7.1100676585998926e-06
800.022431826133 79.70000973266399 7.110068329959071e-06
0.0 80.0 0.0
0.0 0.0 80.0
799.977568173867 -0.29999026733603235 80.00000711006831
800.0224318261329 79.70000973266397 79.99999288993236
0.0 80.0 80.0
19.998968227327875 -0.0004009898640548418 -0.000590939048765
39.99793773383447 -0.0011066174006141352 -0.0006845161511409134
59.9969103434819 -0.002419564427297591 -0.0007053625579934835
79.99588824457828 -0.004266723190126103 -0.0006907841368684977
99.99488738236721 -0.006627468396281002 -0.0006710418489672498
119.99391255076817 -0.009483025280826798 -0.0006511937159077014
139.992965581656 -0.012819055736465065 -0.0006317748322120465
159.9920468537687 -0.016621416612030225 -0.0006125596425867093
179.99115641939795 -0.020876029216784706 -0.0005934061878576701
199.9902942665662 -0.025568776599997376 -0.0005742648686878993
219.98946038571 -0.030685530188078614 -0.0005551240623697418
239.9886547730423 -0.03621215704720214 -0.0005359824426634934
259.9878774276121 -0.042134523556854084 -0.0005168403812875797
279.98712834929125 -0.04843849606331554 -0.000497698175682765
299.98640753804676 -0.055109940972531274 -0.0004785559384104729
319.98571499389817 -0.06213472471952563 -0.0004594136983133001
339.9850507168537 -0.06949871374887652 -0.0004402714596093291
359.98441470691586 -0.07718777450716431 -0.00042112922183080374
379.98380696408475 -0.08518777344113244 -0.000401986984381288
399.98322748836074 -0.09348457699742467 -0.00038284474701086747
419.9826762797437 -0.10206405162262266 -0.00036370250964976443
439.9821533382335 -0.11091206376328654 -0.00034456027228515834
459.9816586638301 -0.12001447986597126 -0.00032541803491598564
479.9811922565337 -0.12935716637723038 -0.00030627579754440666
499.98075411634414 -0.1389259897436091 -0.00028713356019226754
519.980344243337 -0.14870681641165792 -0.00026799132296777885
539.979962637503 -0.15868551282780274 -0.00024884908622771127
559.9796092987767 -0.1688479454383398 -0.00022970685072799772
579.9792842271619 -0.17917998068994545 -0.00021056461660411268
599.9789874226698 -0.18966748503262015 -0.000191422376045367
619.978718885325 -0.20029632492931282 -0.0001722800839608552
639.9784786151232 -0.21105236688493775 -0.00015313758009015914
659.9782666117887 -0.2219214774496052 -0.00013399447978743736
679.9780828737644 -0.23288952311630046 -0.00011485054527244938
699.9779273960137 -0.24394236774683925 -9.570876988663362e-05
719.9778001636271 -0.25506586300322054 -7.659442010413748e-05
739.977701146156 -0.26624576923850063 -5.761293292761117e-05
759.9776301533535 -0.27746769075060435 -3.924886519550216e-05
779.9775863977734 -0.28871713143356464 -2.151530694217201e-05
799.9888056793462 19.700020123077177 -1.3345871806593496e-07
800.0 39.700027767354634 3.358065128575093e-13
800.0111943206538 59.70002012308387 1.334593895338386e-07
780.0224136022593 79.7112828685663 2.151530758971969e-05
760.0223698467121 79.72253230924912 3.924886581900029e-05
740.0222988539423 79.73375423076108 5.761293352715032e-05
720.0221998365038 79.74493413699622 7.659442067963909e-05
700.0220726041501 79.75605763225246 9.570877043788153e-05
680.0219171264321 79.76711047688286 0.00011485054579977796
660.0217333884403 79.77807852254944 0.00013399448029106342
640.0215213851387 79.78894763311398 0.0001531375805697455
620.0212811149698 79.79970367506948 0.00017228008441692188
600.0210125776575 79.81033251496605 0.0001914223764777557
580.0207157731983 79.82082001930861 0.0002105646170130821
560.0203907016161 79.8311520545601 0.00022970685111372912
540.0200373629225 79.84131448717055 0.00024884908659040286
520.0196557571214 79.8512931835866 0.0002679913233079251
500.019245884147 79.86107401025463 0.0002871335605102471
480.0188077439901 79.87064283362106 0.0003062757978406676
460.01834133672645 79.87998552013238 0.0003254180351910683
440.01784666235585 79.88908793623513 0.00034456027253952783
420.01732372087827 79.89793594837585 0.0003637025098839147
400.016772512294 79.90651542300111 0.0003828447472253543
380.0161930366027 79.91481222655746 0.0004019869845767648
360.01558529380446 79.9228122254915 0.00042112922200792735
340.0149492838992 79.93050128624985 0.00044027145976870477
320.0142850068875 79.93786527527926 0.00045941369845569344
300.01359246277156 79.94489005902633 0.00047855593853658745
280.0128716514843 79.95156150393565 0.0004976981757933987
260.01212257305406 79.95786547644222 0.000516840381383662
240.011345227561 79.96378784295199 0.0005359824427459436
220.01053961485513 79.96931446981124 0.0005551240624395297
200.00970573396063 79.97443122339943 0.0005742648687459725
180.00884358109056 79.97912397078275 0.0005934061879049462
160.0079531466813 79.9833785833876 0.0006125596426242087
140.00703441875567 79.98718094426326 0.0006317748322408275
120.0060874496052 79.99051697471897 0.0006511937159288301
100.00511261796497 79.99337253160357 0.0006710418489818654
80.00411175568286 79.99573327680979 0.0006907841368778339
60.00308965670538 79.99758043557264 0.000705362557999099
40.002062266287815 79.99889338259936 0.0006845161511446189
20.001031772735935 79.99959901013594 0.0005909390487688216
0.0 60.0 0.0
0.0 40.0 0.0
0.0 20.0 0.0
19.998968227327875 -0.00040098986405668463 80.00059093904876
39.99793773383447 -0.0011066174006167232 80.00068451615114
59.99691034348189 -0.0024195644273007372 80.000705362558
79.99588824457827 -0.004266723190129716 80.00069078413688
99.9948873823672 -0.006627468396285071 80.00067104184897
119.99391255076816 -0.009483025280831316 80.00065119371592
139.992965581656 -0.012819055736470054 80.00063177483224
159.99204685376867 -0.016621416612035693 80.00061255964262
179.99115641939795 -0.020876029216790614 80.0005934061879
199.99029426656617 -0.025568776600003708 80.00057426486875
219.98946038570998 -0.03068553018808543 80.00055512406243
239.98865477304227 -0.03621215704720936 80.00053598244274
259.9878774276121 -0.04213452355686175 80.00051684038138
279.9871283492912 -0.048438496063323615 80.00049769817579
299.98640753804676 -0.05510994097253983 80.00047855593853
319.9857149938981 -0.062134724719534615 80.00045941369845
339.9850507168537 -0.06949871374888614 80.00044027145977
359.9844147069158 -0.07718777450717432 80.000421129222
379.9838069640847 -0.08518777344114294 80.00040198698457
399.98322748836074 -0.09348457699743563 80.00038284474722
419.98267627974366 -0.1020640516226339 80.00036370250987
439.9821533382335 -0.11091206376329821 80.00034456027254
459.9816586638301 -0.12001447986598336 80.00032541803519
479.98119225653363 -0.12935716637724298 80.00030627579783
499.9807541163441 -0.1389259897436221 80.0002871335605
519.9803442433368 -0.14870681641167144 80.0002679913233
539.9799626375029 -0.15868551282781682 80.00024884908657
559.9796092987767 -0.16884794543835432 80.0002297068511
579.9792842271618 -0.1791799806899601 80.000210564617
599.9789874226698 -0.18966748503263542 80.00019142237646
619.978718885325 -0.20029632492932853 80.0001722800844
639.9784786151231 -0.21105236688495385 80.00015313758055
659.9782666117887 -0.22192147744962143 80.00013399448028
679.9780828737643 -0.23288952311631703 80.00011485054578
699.9779273960136 -0.2439423677468557 80.00009570877042
719.9778001636271 -0.25506586300323686 80.00007659442066
739.9777011461559 -0.2662457692385176 80.00005761293352
759.9776301533534 -0.27746769075062166 80.0000392488658
779.9775863977733 -0.28871713143358224 80.00002151530757
799.9888056793461 19.70002012307716 80.00000013345938
799.9999999999999 39.70002776735461 80.00000000000034
800.0111943206538 59.700020123083846 79.99999986654129
780.0224136022592 79.71128286856627 79.99997848469307
760.022369846712 79.72253230924909 79.99996075113482
740.0222988539422 79.73375423076106 79.9999423870671
720.0221998365038 79.7449341369962 79.9999234055799
700.02207260415 79.75605763225245 79.99990429123014
680.0219171264321 79.76711047688285 79.99988514945474
660.0217333884403 79.77807852254942 79.99986600552023
640.0215213851386 79.78894763311396 79.99984686241993
620.0212811149697 79.79970367506947 79.99982771991606
600.0210125776575 79.81033251496603 79.99980857762397
580.0207157731983 79.8208200193086 79.99978943538342
560.020390701616 79.83115205456009 79.99977029314928
540.0200373629225 79.84131448717054 79.9997511509138
520.0196557571214 79.85129318358659 79.99973200867704
500.019245884147 79.86107401025461 79.99971286643982
480.0188077439901 79.87064283362105 79.99969372420247
460.0183413367264 79.87998552013237 79.9996745819651
440.0178466623558 79.88908793623511 79.99965543972773
420.0173237208782 79.89793594837583 79.99963629749037
400.0167725122939 79.9065154230011 79.999617155253
380.01619303660266 79.91481222655746 79.99959801301563
360.0155852938044 79.92281222549148 79.99957887077818
340.0149492838992 79.93050128624985 79.9995597285404
320.01428500688746 79.93786527527926 79.99954058630169
300.01359246277156 79.94489005902632 79.9995214440616
280.01287165148426 79.95156150393564 79.99950230182432
260.01212257305406 79.95786547644221 79.99948315961872
240.011345227561 79.96378784295199 79.99946401755734
220.0105396148551 79.96931446981124 79.99944487593764
200.0097057339606 79.97443122339943 79.99942573513133
180.00884358109053 79.97912397078275 79.99940659381215
160.00795314668127 79.9833785833876 79.99938744035742
140.00703441875564 79.98718094426324 79.9993682251678
120.00608744960519 79.99051697471896 79.99934880628409
100.00511261796495 79.99337253160357 79.99932895815104
80.00411175568284 79.99573327680977 79.99930921586314
60.00308965670537 79.99758043557264 79.999294637442
40.00206226628781 79.99889338259936 79.99931548384886
20.001031772735935 79.99959901013594 79.99940906095124
0.0 60.0 80.0
0.0 40.0 80.0
0.0 20.0 80.0
0.0 0.0 20.0
0.0 0.0 40.0
0.0 0.0 60.0
799.9775597035309 -0.2999971905843844 19.999995432793398
799.9775578172976 -0.3 40.00000000000033
[...]
POINT_DATA 1025
SCALARS CellEntityIds float 1
LOOKUP_TABLE default
5.404105221159053
0.22408256284691835
0.22408256284682654
5.404105221176179
5.404105221171114
0.2240825628471786
0.2240825628472284
5.404105221163554
5.93417797609076
6.366853347124555
6.2216169310362845
6.099093881977916
5.943202174455989
5.7777182229835375
5.6085845877459155
5.43879924769457
5.268971503051076
5.099192138883966
4.929443161656097
4.759710322829459
4.589988581216263
4.42027749065111
4.250578076714256
4.080891830066034
3.911220504896265
3.7415661506896365
3.5719311950483097
3.4023185469786066
3.232731726670606
3.063175035902294
2.893653787780229
2.724174622386937
2.554745948466052
2.3853785738913094
2.216086625791804
2.046888927575335
1.8778111222043745
1.7088890713107259
1.5401745870147052
1.3717457305703318
1.2037269455776418
1.0363294966178058
0.8699373710636862
0.7052205201198509
0.5433583194054673
0.3862183601819557
0.2665942845531421
0.29870548529871654
0.37332840775043213
0.298705485298588
0.2665942845520787
0.38621836017874
0.5433583193998857
0.7052205201120907
0.8699373710540077
1.0363294966060952
1.2037269455640773
1.3717457305551353
1.5401745869976886
1.7088890712918552
1.8778111221839429
2.0468889275536073
2.2160866257687726
2.385378573867688
2.554745948442956
2.7241746223647247
2.893653787758882
3.0631750358818617
3.232731726651058
3.402318546959794
3.5719311950301744
3.741566150672297
3.911220504879701
4.080891830050216
4.250578076700032
4.4202774906394495
4.589988581207464
4.759710322823546
4.929443161652905
5.099192138883294
5.268971503052839
5.438799247698832
5.608584587752686
5.777718222992819
5.9432021744675225
6.0990938819918705
6.2216169310530915
6.366853347145458
5.934177976111112
3.581807897845242
1.759510574506192
3.581807897828566
5.934177976104406
6.366853347139568
6.22161693105096
6.09909388199228
5.943202174469938
5.777718222997045
5.608584587758971
5.438799247707154
5.268971503063215
5.099192138895694
4.929443161667393
4.759710322840316
4.589988581226705
4.4202774906611495
4.2505780767237855
4.080891830075026
3.9112205049048776
3.7415661506977997
3.5719311950559476
3.4023185469858235
3.232731726677288
3.0631750359085386
2.8936537877860022
2.724174622391965
2.5547459484706954
2.3853785738958577
2.216086625795938
2.0468889275787547
1.8778111222071385
1.7088890713129827
1.540174587016387
1.3717457305716234
1.203726945578686
1.0363294966185546
0.8699373710644773
0.7052205201208999
0.5433583194063056
0.3862183601826066
0.26659428455366996
0.2987054852991098
0.37332840775126075
0.2987054852993544
0.26659428455241924
0.3862183601790822
0.5433583194004107
0.7052205201123322
0.8699373710535996
1.0363294966053205
1.2037269455629969
1.371745730553648
1.5401745869958225
1.7088890712897669
1.8778111221814822
2.0468889275505924
2.2160866257651124
2.385378573863335
2.5547459484383026
2.724174622359836
2.8936537877535122
3.0631750358758474
3.2327317266444022
3.4023185469526727
3.571931195022686
3.7415661506643234
3.9112205048711437
4.080891830041237
4.250578076690674
4.42027749062963
4.58998858119714
4.759710322812765
4.9294431616417
5.099192138871668
5.268971503040779
5.438799247686303
5.608584587739689
5.777718222979389
5.943202174453672
6.099093881977611
6.221616931038497
6.366853347130448
5.934177976097153
3.581807897832987
1.7595105745053394
3.581807897839686
5.207395029659593
5.010684838162113
5.2073950296676035
0.2206953739293243
0.2173081850118157
0.22069537392953986
0.2206953739294295
0.21730818501216653
0.22069537392976452
5.207395029673943
5.010684838169819
5.207395029665742
3.9576777879332927
1.981177599784799
3.9576777879524423
4.26543602561974
2.1640187041245547
4.265436025639821
4.161518930869112
2.1014209307109866
4.1615189308865626
4.078527845811923
2.0579618096542713
4.078527845827241
3.978147519174196
2.0130928639002974
3.978147519187857
3.8692554438129987
1.9607926646499019
3.8692554438250815
3.757312887485663
1.906041187232184
3.757312887495821
3.6447771484456775
1.8507550492029012
3.644777148453925
3.532237185843209
1.79550286864082
3.532237185849569
3.419776912702812
1.7403616865265297
3.4197769127073476
3.307386938598001
1.6853307155442168
3.3073869386007164
3.1950592409854597
1.630408159145109
3.1950592409861516
3.082794464654903
1.5756003480962941
3.0827944646532544
2.9705979245326715
1.5209183584158612
2.97059792452847
2.8584770782477973
1.4663760797818124
2.858477078241159
2.7464407862399502
1.41198974241371
2.7464407862318847
2.6344993220853814
1.3577781392741313
2.6344993220767323
2.522664631245507
1.3037631118007493
2.5226646312362098
2.4109506915730736
1.2499701880969603
2.4109506915631282
2.29937396259435
1.1964293782089344
2.299373962583784
2.1879539485294632
1.1431761703868417
2.1879539485182105
2.0767139134056234
1.0902527909072512
2.076713913393706
1.965681798763411
1.0377098097448278
1.9656817987509725
1.8548914117596342
0.985608201130474
1.8548914117466704
1.7443839765037714
0.9340220045389883
1.744383976489721
1.634210177120042
0.8830417803454411
1.6342101771048978
1.524432871700944
0.8327791176065947
1.524432871685939
1.415130728813292
0.7833725300479517
1.4151307287991308
1.3064031439855142
0.7349951657635031
1.3064031439721475
1.1983769543731722
0.6878648374326604
1.1983769543607785
1.0912157358044527
0.6422568845914802
1.0912157357932244
0.985132933825666
0.598520137078755
0.9851329338158226
0.880411004689111
0.5570950637989692
0.8804110046807176
0.7774298635107673
0.5185302304024029
0.777429863503586
0.6767114510223524
0.48348553097984687
0.6767114510163414
0.5789860696792603
0.45275161923773494
0.5789860696744454
0.4854732359740025
0.4275881525418962
0.4854732359705701
0.39866967296576167
0.4111209857493704
0.3986696729639565
0.3280383655702979
0.3894824465874267
0.3280383655697393
5.838294620485763
5.742411264883049
5.838294620494869
6.405969447833616
6.445085548545212
6.405969447843656
6.2741277324346605
6.326638533835479
6.274127732444441
6.12012037731775
6.141146872659974
6.1201203773273205
5.949504075916312
5.955805977378958
5.94950407592561
5.7789864980784005
5.780254773175511
5.778986498087402
5.608674651032648
5.6087647143215476
5.608674651041342
5.438727440629723
5.438655633566958
5.438727440638097
5.2689064425324394
5.268841382015822
5.268906442540528
5.099126617314549
5.099061095747073
5.099126617322355
4.92935841091789
4.929273660181555
4.929358410925411
4.759597116854109
4.759483910880581
4.75959711686136
4.589843258581322
4.589697935948129
4.5898432585882905
4.420098169585865
4.419918848522271
4.420098169592537
4.250363144448171
4.250148212183657
4.250363144454507
4.08063951997045
4.080387209876358
4.0806395199764385
3.9109287997707836
3.910637094646718
3.9109287997765056
3.741232744559822
3.740899338431355
3.741232744565252
3.5715534481089035
3.5711757011707697
3.5715534481139946
3.4018934232086537
3.401468299439891
3.401893423213452
3.2322557118900614
3.231779697110629
3.2322557118945148
3.0626440321354185
3.0621130283695823
3.06264403213958
2.8930629764832942
2.8924721651873044
2.8930629764871254
2.723518285165217
2.7228619479443337
2.7235182851685678
2.554017228481175
2.5532885084970913
2.5540172284842906
2.3845691529810678
2.3837597320715878
2.3845691529841035
2.2151862794984334
2.214285933205743
2.215186279501181
2.0458848991008938
2.0448808706270563
2.0458848991032075
1.8766872172987221
1.875563312393569
1.8766872173006037
1.7076242907535109
1.7063595101966693
1.7076242907550125
1.5387409012632696
1.5373072155120682
1.5387409012643447
1.3701040708518075
1.3684624111334545
1.3701040708526246
1.2018193930920344
1.1999118406065548
1.2018193930926844
1.0340644370914598
1.031799377565224
1.0340644370919443
0.867166509729322
0.8643956483952064
0.8671665097299662
0.7017266402776875
0.6982327604358805
0.7017266402785683
0.5388683533121177
0.5343783872189891
0.538868353312758
0.38073678665096566
0.37525521312004695
0.38073678665136235
0.2619499968781038
0.2573057092031424
0.2619499968784446
0.2909183660974442
0.28313124689629143
0.2909183660977604
0.36114135826569954
0.3489543087811719
0.36114135826631877
0.2909183660976322
0.2831312468968716
0.2909183660982106
0.2619499968770551
0.25730570920201024
0.2619499968772041
0.3807367866476459
0.37525521311643995
0.3807367866477052
0.5388683533065063
0.534378387213192
0.5388683533068339
0.7017266402698884
0.6982327604277931
0.7017266402701161
0.86716650971948
0.8643956483849081
0.8671665097192318
1.034064437079474
1.0317993775527514
1.034064437078985
1.2018193930780483
1.1999118405919467
1.2018193930774355
1.3701040708360521
1.3684624111168378
1.370104070835177
1.5387409012456534
1.5373072154933847
1.5387409012444868
1.707624290733956
1.706359510175722
1.707624290732577
1.876687217277421
1.875563312370473
1.8766872172757647
2.04588489907803
2.0448808706019435
2.0458848990760137
2.2151862794740795
2.214285933178758
2.215186279471621
2.384569152956031
2.3837597320436394
2.38456915295312
2.554017228456603
2.553288508469449
2.554017228453476
2.7235182851413495
2.722861947917164
2.723518285138095
2.8930629764600564
2.8924721651603975
2.893062976456538
3.0626440321129422
3.062113028343065
3.0626440321089774
3.2322557118683366
3.231779697084515
3.2322557118639086
3.4018934231875217
3.40146829941407
3.4018934231827815
3.5715534480882876
3.5711757011451457
3.5715534480832885
3.7412327445398357
3.74089933840599
3.7412327445344653
3.910928799751404
3.910637094621631
3.9109287997456494
4.080639519951672
4.080387209851613
4.080639519945668
4.250363144430861
4.250148212160129
4.25036314442462
4.420098169570933
4.419918848500791
4.420098169564398
4.589843258569075
4.58969793592898
4.589843258562208
4.75959711684462
4.759483910863899
4.759597116837436
4.929358410910959
4.9292736601671505
4.929358410903494
5.099126617309993
5.099061095734761
5.099126617302249
5.268906442530197
5.268841382005542
5.268906442522155
5.438727440629807
5.438655633558696
5.438727440621455
5.608674651035055
5.6087647143152575
5.60867465102639
5.7789864980830865
5.780254773171115
5.778986498074133
5.9495040759229125
5.955805977375998
5.9495040759136835
6.120120377326363
6.1411468726584895
6.1201203773168675
6.274127732446136
6.3266385338367535
6.274127732436412
6.405969447849997
6.445085548552022
6.405969447839979
5.838294620502759
5.742411264892177
5.838294620493551
3.420354234817872
3.2589005717886725
3.420354234809915
1.6333134399551623
1.5071163054041397
1.6333134399547429
3.420354234804058
3.2589005717814334
3.4203542348115006
3.957677787946504
1.9811775997844832
3.957677787938759
4.265436025634912
2.164018704124844
4.26543602562494
4.161518930883981
2.101420930711372
4.16151893087212
4.0785278458263985
2.0579618096546963
4.078527845813243
3.978147519188232
2.0130928639007517
3.9781475191743256
3.869255443826593
1.9607926646503826
3.8692554438120057
3.7573128874988098
1.9060411872326812
3.7573128874832014
3.64477714845837
1.8507550492034097
3.6447771484417686
3.532237185855456
1.7955028686413441
3.5322371858378854
3.4197769127146262
1.7403616865270528
3.4197769126961077
3.30738693860937
1.685330715544723
3.3073869385899
3.195059240996411
1.6304081591456208
3.19505924097575
3.0827944646654557
1.5756003480968448
3.0827944646433116
2.970597924542798
1.5209183584164707
2.970597924519062
2.8584770782574553
1.466376079782475
2.8584770782322497
2.7464407862491322
1.4119897424144061
2.7464407862234057
2.6344993220941606
1.357778139274846
2.634499322068696
2.5226646312538343
1.303763111801488
2.5226646312287153
2.410950691580924
1.2499701880977279
2.410950691556121
2.2993739626017535
1.196429378209698
2.2993739625771923
2.1879539485362427
1.1431761703874908
2.187953948512093
2.076713913411928
1.0902527909078852
2.0767139133881503
1.9656817987694246
1.037709809745719
1.9656817987460515
1.854891411765105
0.9856082011315129
1.854891411742309
1.7443839765086937
0.9340220045399632
1.7443839764857687
1.6342101771246584
0.8830417803464481
1.634210177101386
1.5244328717051916
0.8327791176076862
1.5244328716830196
1.4151307288170105
0.7833725300491362
1.4151307287967994
1.3064031439886863
0.7349951657648273
1.3064031439704513
1.198376954375776
0.687864837433944
1.1983769543595428
1.0912157358064825
0.6422568845926003
1.0912157357922228
0.985132933827293
0.5985201370797277
0.9851329338150703
0.8804110046904895
0.5570950637998351
0.8804110046801873
0.7774298635115683
0.5185302304027056
0.777429863503075
0.6767114510229831
0.4834855309801239
0.6767114510161794
0.5789860696804188
0.45275161923915364
0.5789860696753508
0.48547323597504927
0.427588152543588
0.48547323597189684
0.3986696729665754
0.41112098575057215
0.3986696729648411
0.32803836557096894
0.38948244658837183
0.32803836557044747
3.891335771227014
3.8249937545229713
3.891335771235856
1.944376921975271
1.9075762441657924
1.9443769219751625
3.8913357712425176
3.8249937545304338
3.891335771233517
4.310733854698174
4.356031683779165
4.310733854708317
2.2154982615698455
2.266977819015219
2.215498261570073
4.310733854713479
4.356031683784671
4.310733854703573
4.204936259576593
4.2483535882865535
4.204936259586507
2.135744786725046
2.1700686427391713
2.1357447867253048
4.20493625958885
4.248353588288734
4.204936259579224
4.094506438322426
4.110485030835333
4.094506438332067
2.068892499333022
2.0798231890118286
2.0688924993332902
4.094506438332651
4.110485030835727
4.094506438323317
3.981858514052859
3.9855695089338536
3.9818585140622087
2.014212952194992
2.015333040489741
2.0142129521952734
3.981858514061745
3.9855695089333647
3.981858514052711
3.8689050520645845
3.8685546603184306
3.868905052073641
1.9588236060559976
1.9568545474621524
1.958823606056297
3.868905052072156
3.8685546603170353
3.8689050520634227
3.7559792554250704
3.754645623366658
3.7559792554338243
1.9032838598221333
1.900526532412146
1.9032838598224453
3.7559792554309146
3.7546456233638903
3.755979255422487
3.643244449864703
3.641711751285831
3.6432444498731518
1.8477614591037426
1.8447678690046485
1.8477614591040616
3.6432444498688046
3.6417117512816444
3.6432444498606866
3.530623899474356
3.5290106131075367
3.530623899482513
1.7923413564197739
1.7891798441987907
1.7923413564200992
3.5306238994767356
3.5290106131019363
3.530623899468928
3.418069152338112
3.416361391975367
3.418069152345974
1.7370116873646475
1.7336616882028277
1.7370116873649717
3.418069152338806
3.4163613919683784
3.4180691523313
3.3055642959572396
3.303741653318361
3.305564295964807
1.6817701809990653
1.6782096464539775
1.6817701809993821
3.30556429595625
3.3037416533099693
3.305564295949028
3.1931092470673077
3.1911592531509814
3.1931092470746094
1.6266213772823785
1.622834595419714
1.6266213772827003
3.1931092470644353
3.1911592531409725
3.1931092470574884
3.080708701642286
3.0786229386314297
3.080708701649323
1.5715741447042926
1.5675479413123716
1.5715741447046485
3.0807087016372052
3.078622938619496
3.0807087016305745
2.9683688161032395
2.9661397076754854
2.968368816109981
1.5166394626206232
1.512360566825476
1.516639462621019
2.968368816095782
2.966139707661522
2.9683688160895056
2.856096607616513
2.853716136986829
2.856096607622942
1.461830070783803
1.4572840617858758
1.4618300707842167
2.8560966076068057
2.85371613697094
2.8560966076008376
2.7439000819922654
2.741359377746094
2.74390008199837
1.4071606440124698
1.4023315456112897
1.4071606440128783
2.7439000819812653
2.7413593777291814
2.743900081975562
2.631788485266676
2.6290776484494067
2.631788485272502
1.3526481707608227
1.3475182022475762
1.3526481707612423
2.6317884852552407
2.629077648432344
2.6317884852498175
2.519772588751441
2.5168805462587494
2.5197725887569793
1.2983124329411264
1.2928617540815937
1.2983124329415858
2.519772588739514
2.516880546241517
2.5197725887344653
2.407865022960086
2.404779354348407
2.4078650229653196
1.2441765978091262
1.2383830075214153
1.2441765978096333
2.407865022947636
2.4047793543309663
2.4078650229429552
2.296080689665824
2.2927874167385074
2.2960806896707355
1.1902679561206448
1.1841065340324524
1.1902679561211236
2.2960806896529085
2.292787416720925
2.2960806896485053
2.184437282650099
2.1809206167718287
2.1844372826545824
1.1366188534075858
1.1300615364283737
1.136618853407954
2.184437282636686
2.1809206167541166
2.184437282632583
2.072955953662401
2.069197993920208
2.0729559536665825
1.0832678751866809
1.0762829594661798
1.083267875187067
2.07295595364846
2.0691979939022955
2.0729559536447635
1.9616621718239038
1.957642544885382
1.961662171827896
1.030261367161783
1.0228129245788609
1.030261367162351
1.9616621718095546
1.9576425448673296
1.9616621718062865
1.850586842566917
1.84628227337509
1.850586842570543
0.9776553999658537
0.9697025988013701
0.9776553999665099
1.8505868425522203
1.8462822733570288
1.850586842549298
1.7397677779529697
1.7351515794029602
1.739767777956223
0.9255183274214565
0.9170146503040221
0.9255183274220413
1.7397677779373755
1.7351515793843322
1.7397677779347016
1.6292516471639202
1.624293117208554
1.629251647166984
0.8739341413427645
0.864826502340208
0.8739341413433883
1.6292516471473935
1.6242931171892676
1.6292516471450158
1.5190965892431598
1.5137603067860654
1.5190965892459733
0.823006898983778
0.8132346803610973
0.8230068989844597
1.5190965892268746
1.5137603067672827
1.5190965892248873
1.4093757473368065
1.403620765860952
1.409375747339297
0.7728665955688606
0.7623606610899306
0.772866595569614
1.409375747321516
1.4036207658434785
1.4093757473199275
1.3001820959840131
1.2939610479830432
1.3001820959861305
0.723676974665703
0.7123587835680851
0.7236769746665473
1.3001820959697614
1.293961047967063
1.300182095968601
1.1916350976718735
1.1848932409709818
1.1916350976735823
0.675645904586935
0.6634269717413251
0.6756459045876924
1.1916350976587948
1.184893240956539
1.1916350976579047
1.0838899795794728
1.0765642233547879
1.0838899795807828
0.6290390578926945
0.6158212311940291
0.629039057893375
1.083889979567683
1.0765642233419674
1.083889979567008
0.9771508543007175
0.9691687747759681
0.9771508543017301
0.5841976377471467
0.5698751384156033
0.5841976377476981
0.977150854290359
0.9691687747647812
0.9771508542898688
0.8716899078370923
0.8629688109852612
0.8716899078379691
0.5415604225803007
0.5260257813617306
0.5415604225808321
0.8716899078282496
0.8629688109757201
0.871689907827923
0.7678768863253248
0.7583239091399732
0.7678768863258159
0.5016893355576486
0.48484844071292277
0.5016893355578285
0.7678768863177907
0.7583239091319375
0.7678768863174773
0.6662301306577021
0.655748810293171
0.6662301306581366
0.4652937515847769
0.44710197218968295
0.46529375158489145
0.6662301306514757
0.6557488102865693
0.6662301306513538
0.5675070332777872
0.5560279968766348
0.5675070332786871
0.4332874262769101
0.4138232333163183
0.43328742627785255
0.5675070332729107
0.5560279968715202
0.5675070332735077
0.47302986021089805
0.4605864844480496
0.47302986021167753
0.4071913671090208
0.3867945816764632
0.40719136711018444
0.47302986020743476
0.46058648444450406
0.47302986020830284
0.3857587390144203
0.37284780506318704
0.3857587390149353
0.39078069137753985
0.3704403970059651
0.39078069137839655
0.38575873901242536
0.3728478050610215
0.38575873901299496
0.31768286350099384
0.30732736143179895
0.3176828635014386
0.3734157301238432
0.3573490136604778
0.37341573012453383
0.3176828635004289
0.30732736143125516
0.31768286350091957
