# vtk DataFile Version 2.0
mesh vtk view
ASCII
DATASET UNSTRUCTURED_GRID
POINTS 1025 double
0.0 0.0 0.0
795.5719439316946 -59.21826051246079 -0.0014035316632342062
804.4280560683148 20.781739487539177 0.0014035317957609148
0.0 80.0 0.0
0.0 0.0 80.0
795.5719439316852 -59.21826051246431 80.00140353179235
804.4280560683055 20.781739487535646 79.99859646834022
0.0 80.0 80.0
19.79632746483341 -0.07915564209240968 -0.11665172622935421
39.592907441370315 -0.21844694529302416 -0.1351239029293107
59.39009997850767 -0.4776234837709029 -0.1392389962711941
79.18833704912913 -0.8422537426003753 -0.13636120710921174
98.99076625627292 -1.3082662764838058 -0.13246406751721757
118.79833392788798 -1.8719549354487857 -0.12854603402685166
138.61140167184203 -2.530489368428283 -0.12471273462096652
158.43004425068696 -3.281077708813999 -0.12091964454796418
178.25427198682527 -4.120940814525172 -0.11713874098089135
198.08408251591175 -5.047291990935135 -0.11336023298057009
217.9194739501047 -6.057342249057916 -0.10958182621746798
237.76044554183267 -7.14830173919418 -0.10580325889106396
257.6069970985478 -8.31738047609205 -0.10202460437880045
277.45912859064214 -9.56178846794495 -0.0982459213956645
297.3168400207317 -10.878735734723957 -0.09446723216134931
317.18013139266014 -12.265432302140464 -0.09068854236940097
337.04900270807707 -13.719088197791757 -0.08690985285247152
356.9234539674485 -15.236913449670393 -0.08313116351822558
376.8034851708574 -16.816118085801133 -0.07935247424892636
396.6890963183039 -18.453912134189046 -0.07557378499524056
416.58028740978034 -20.147505622826962 -0.07179509574339404
436.4770584452832 -21.894108579703442 -0.06801640649085602
456.37940942481083 -23.69093103280604 -0.06423771723741656
476.28734034836157 -25.53518301012203 -0.06045902798350209
496.20085121593036 -27.424074539637022 -0.05668033873342506
516.1199420275836 -29.354815649337702 -0.052901649508546304
536.0446127833205 -31.324616367186128 -0.04912296037929256
555.9748634832206 -33.33068672111878 -0.045344271494885464
575.9106941280038 -35.37023673914718 -0.04156558288206775
595.8521047199865 -37.44047644993901 -0.037786892999004645
615.7990952639252 -39.538615884718 -0.03400819294472409
635.7516657590754 -41.661865082991866 -0.030229451083722457
655.709816150942 -43.80743409319003 -0.02645059148667762
675.6735461321299 -45.97253295246543 -0.02267156721562605
695.6428547084527 -48.15437117857651 -0.018892969157981117
715.6177389368087 -50.350155881030524 -0.015119784931046482
735.5981928065271 -52.55707614489409 -0.011372827863021216
755.5841787628157 -54.77229024985638 -0.007747749767369439
775.5755413633395 -56.99293665581744 -0.0042471346248043424
797.7902343211882 -39.21620943131536 -2.6344831798277474e-05
799.9999999999981 -19.214700441656078 6.628840907662893e-11
802.2097656788138 0.7837905686913444 2.634496434644844e-05
784.4244586367028 23.007063344154616 0.004247134752630647
764.4158212372596 25.22770975008786 0.007747749890448349
744.4018071935812 27.442923855022556 0.011372827981370607
724.3822610633327 29.64984411885883 0.01511978504465085
704.3571452917222 31.845628821285857 0.018892969266797788
684.3264538680783 34.027467047370536 0.022671567319721028
664.2901838493 36.19256590662026 0.026450591586093707
644.2483342412003 38.33813491679338 0.0302294511783931
624.2009047363844 40.461384115043145 0.03400819303475192
604.147895280357 42.55952354979888 0.03778689308435843
584.0893058723739 44.62976326056855 0.04156558296279856
564.0251365171912 46.66931327857594 0.04534427157102908
543.9553872171256 48.6753836324888 0.049122960450888105
523.8800579728971 50.645184350318914 0.05290164957569138
503.7991487845844 52.575925460015355 0.05668033879619442
483.7126596521866 54.46481698954125 0.06045902804198418
463.62059057577073 56.309068966868516 0.06423771729171804
443.5229415553318 58.105891419982754 0.06801640654106872
423.4197125908678 59.852494376871185 0.07179509578961545
403.3109036823776 61.546087865521315 0.07557378503758039
383.19651482985734 63.1838819139218 0.07935247428751359
363.07654603329956 64.76308655006541 0.08313116355318989
342.95099729270413 66.28091180195716 0.08690985288393235
322.8198686081542 67.73456769762184 0.09068854239750951
302.68315998011565 69.12126426505199 0.09446723218624441
282.54087141016225 70.43821153184969 0.09824592141750364
262.39300290214646 71.68261952372497 0.10202460439776714
242.23955445879753 72.85169826064696 0.10580325890733969
222.08052605048573 73.94265775080729 0.10958182623124416
201.9159174846387 74.9527080089525 0.11336023299203378
181.74572801368498 75.87905918538316 0.11713874099022369
161.56995574978276 76.71892229111319 0.12091964455536659
141.38859832858722 77.46951063151583 0.12471273462664789
121.20166607250067 78.1280450645102 0.1285460340310225
101.00923374407209 78.69173372348784 0.1324640675201027
80.81166295114252 79.1577462573811 0.1363612071110547
60.609900021687665 79.52237651621837 0.1392389962723026
40.40709255875737 79.78155305470214 0.13512390293004217
20.203672535232993 79.9208443579063 0.1166517262301086
0.0 60.0 0.0
0.0 40.0 0.0
0.0 20.0 0.0
19.796327464832927 -0.07915564209277344 80.11665172622946
39.59290744136935 -0.21844694529353503 80.13512390292964
59.39009997850623 -0.477623483771524 80.13923899627204
79.18833704912721 -0.8422537426010884 80.13636120711082
98.99076625627055 -1.308266276484609 80.13246406751983
118.79833392788514 -1.8719549354496776 80.12854603403069
138.61140167183876 -2.530489368429268 80.12471273462626
158.4300442506833 -3.281077708815078 80.12091964455492
178.25427198682118 -4.120940814526338 80.11713874098973
198.08408251590728 -5.047291990936386 80.11336023299148
217.91947395009984 -6.057342249059261 80.10958182623064
237.76044554182744 -7.148301739195605 80.10580325890669
257.60699709854225 -8.317380476093563 80.10202460439706
277.4591285906362 -9.561788467946545 80.09824592141672
297.3168400207255 -10.878735734725646 80.09446723218537
317.1801313926536 -12.26543230214224 80.09068854239653
337.04900270807025 -13.719088197793655 80.08690985288285
356.9234539674414 -15.236913449672368 80.08313116355203
376.80348517085 -16.816118085803204 80.07935247428627
396.68909631829627 -18.45391213419121 80.07557378503623
416.58028740977255 -20.14750562282918 80.07179509578819
436.4770584452752 -21.894108579705748 80.06801640653954
456.37940942480265 -23.690931032808432 80.06423771729013
476.28734034835315 -25.53518301012452 80.0604590280403
496.2008512159218 -27.42407453963959 80.0566803387944
516.1199420275749 -29.354815649340367 80.05290164957376
536.0446127833117 -31.324616367188906 80.0491229604488
555.9748634832116 -33.33068672112165 80.04534427156878
575.9106941279947 -35.37023673915007 80.04156558296043
595.8521047199773 -37.440476449942025 80.03778689308184
615.799095263916 -39.538615884721104 80.0340081930321
635.7516657590661 -41.66186508299504 80.03022945117564
655.7098161509326 -43.80743409319324 80.02645059158323
675.6735461321207 -45.972532952468704 80.02267156731675
695.6428547084433 -48.154371178579765 80.01889296926377
715.6177389367994 -50.35015588103374 80.01511978504152
735.5981928065178 -52.55707614489745 80.01137282797812
755.5841787628062 -54.77229024985979 80.00774774988706
775.5755413633301 -56.99293665582091 80.00424713474922
797.7902343211788 -39.21620943131886 80.00002634496263
799.9999999999886 -19.21470044165961 80.00000000006627
802.2097656788045 0.7837905686878202 79.99997365516991
784.4244586366934 23.0070633441511 79.9957528653787
764.4158212372503 25.227709750084387 79.99225225023618
744.4018071935718 27.442923855019124 79.98862717214051
724.3822610633234 29.649844118855512 79.98488021507244
704.3571452917129 31.84562882128261 79.98110703084552
684.3264538680689 34.02746704736731 79.9773284327879
664.2901838492907 36.19256590661707 79.9735494085168
644.248334241191 38.338134916790345 79.96977054891974
624.2009047363752 40.46138411504013 79.96599180705873
604.1478952803478 42.55952354979595 79.96221310700442
584.0893058723648 44.62976326056573 79.95843441712132
564.0251365171822 46.66931327857319 79.95465572850847
543.9553872171167 48.6753836324862 79.950877039624
523.8800579728884 50.64518435031642 79.94709835049468
503.79914878457583 52.57592546001301 79.94331966126973
483.71265965217816 54.464816989539 79.93954097201954
463.6205905757625 56.30906896686639 79.93576228276552
443.52294155532377 58.10589141998071 79.93198359351197
423.41971259086 59.85249437686923 79.92820490425935
403.31090368237005 61.546087865519496 79.92442621500739
383.19651482985 63.183881913920075 79.9206475257536
363.0765460332925 64.76308655006379 79.91686883648418
342.9509972926973 66.28091180195567 79.91309014714984
322.81986860814766 67.73456769762046 79.9093114576328
302.68315998010945 69.12126426505073 79.90553276784073
282.54087141015634 70.43821153184855 79.9017540786063
262.3930029021409 71.68261952372391 79.89797539562305
242.23955445879233 72.851698260646 79.89419674111066
222.08052605048087 73.94265775080645 79.89041817378411
201.9159174846342 74.95270800895176 79.88663976702087
181.7457280136809 75.87905918538253 79.8828612590204
161.56995574977907 76.71892229111268 79.87908035545318
141.38859832858395 77.46951063151542 79.87528726538004
121.20166607249784 78.1280450645099 79.87145396597401
101.0092337440697 78.69173372348766 79.86753593248349
80.8116629511406 79.15774625738104 79.86363879289134
60.60990002168622 79.52237651621842 79.86076100372912
40.40709255875641 79.78155305470227 79.86487609707068
20.20367253523251 79.92084435790649 79.88334827377017
0.0 60.0 80.0
0.0 40.0 80.0
0.0 20.0 80.0
0.0 0.0 20.0
0.0 0.0 40.0
0.0 0.0 60.0
795.570271882213 -59.21962716588326 19.999098430649646
795.569899538597 -59.22018174622778 40.00000000006454
795.5702718822082 -59.21962716588507 60.00090156947947
804.4297281177919 20.780372834116697 20.00090156948291
804.4301004614031 20.779818253772227 40.00000000006801
804.4297281177872 20.780372834114914 59.9990984306531
0.0 80.0 20.0
0.0 80.0 40.0
0.0 80.0 60.0
[...]
POINT_DATA 1025
SCALARS CellEntityIds float 1
LOOKUP_TABLE default
0.0
0.24074425986738604
0.24074425986738907
0.0
0.0
0.24074425986740317
0.24074425986740053
0.0
0.001004192891813903
0.0019514360400759035
0.0031908514725120895
0.004774124164724091
0.006720027353169445
0.009033120859295677
0.011712733297831525
0.014754113334865699
0.018149960145209282
0.021891421461382028
0.02596873743662169
0.030371607228835657
0.03508939873915365
0.04011127023476055
0.04542624329606068
0.051023247976365156
0.056891151593606346
0.06301877756074192
0.06939491798467823
0.07600834227096114
0.08284780311215043
0.08990204072813242
0.0971597859169771
0.10460976228269571
0.11224068788449405
0.12004127647358906
0.1280002384319222
0.13610628149301462
0.14434811130194042
0.152714431856604
0.16119394586368405
0.16977535504461094
0.1784473603832527
0.1871986623018334
0.19601795890464727
0.20489393887711976
0.2138152187538368
0.22277030038753623
0.2317476403859368
0.2402328076846061
0.24005959638484575
0.2402328076846063
0.23174764038605278
0.22277030038776477
0.21381521875417708
0.2048939388775705
0.1960179589052072
0.1871986623025002
0.17844736038402348
0.16977535504548305
0.1611939458646537
0.1527144318576677
0.1443481113030938
0.136106281494253
0.12800023843324063
0.12004127647498156
0.11224068788590369
0.1046097622840614
0.09715978591829728
0.08990204072940562
0.08284780311337543
0.0760083422721368
0.06939491798580319
0.06301877756181495
0.05689115159462647
0.051023247977331224
0.04542624329697172
0.04011127023559618
0.03508939873989906
0.030371607229483844
0.02596873743717294
0.021891421461842926
0.018149960145586903
0.014754113335167525
0.011712733298065398
0.009033120859469897
0.0067200273532929235
0.004774124164808187
0.0031908514725647024
0.0019514360401042515
0.0010041928918256926
0.0
0.0
0.0
0.001004192891816179
0.0019514360400805235
0.0031908514725187513
0.0047741241647322715
0.006720027353178736
0.009033120859305802
0.011712733297842311
0.01475411333487703
0.01814996014522104
0.02189142146139414
0.02596873743663416
0.03037160722884839
0.03508939873916666
0.040111270234773795
0.0454262432960742
0.051023247976378895
0.056891151593620445
0.06301877756075619
0.06939491798469274
0.07600834227097587
0.08284780311216525
0.08990204072814742
0.0971597859169923
0.10460976228271114
0.11224068788450964
0.12004127647360487
0.1280002384319383
0.13610628149303095
0.14434811130195666
0.15271443185662056
0.1611939458637008
0.16977535504462785
0.17844736038326955
0.18719866230185037
0.19601795890466397
0.20489393887713617
0.21381521875385368
0.22277030038755313
0.2317476403859538
0.2402328076846217
0.24005959638486007
0.24023280768461922
0.23174764038606402
0.2227703003877757
0.21381521875418769
0.20489393887758045
0.19601795890521673
0.18719866230250948
0.17844736038403244
0.16977535504549118
0.16119394586466157
0.15271443185767508
0.14434811130310052
0.13610628149425927
0.1280002384332461
0.12004127647498643
0.11224068788590782
0.10460976228406492
0.09715978591830016
0.08990204072940798
0.08284780311337722
0.07600834227213793
0.06939491798580372
0.06301877756181487
0.056891151594625704
0.05102324797732984
0.045426243296969745
0.040111270235593556
0.03508939873989591
0.030371607229480138
0.025968737437168685
0.02189142146183818
0.018149960145581633
0.014754113335161814
0.011712733298059313
0.009033120859463539
0.006720027353286474
0.004774124164801921
0.00319085147255906
0.0019514360400998993
0.0010041928918233093
0.0
0.0
0.0
0.0
0.0
0.0
0.24075029043204435
0.24075264504170085
0.2407502904320531
0.240750290432046
0.24075264504170088
0.2407502904320518
0.0
0.0
0.0
0.0004661657966493285
6.808433831272397e-06
0.00046616579665365965
0.0011017529047283568
0.0006105713702751013
0.0011017529047410936
0.0021424489746915227
0.0016692950741433352
0.002142448974716591
0.0036179754543687226
0.0031523231060390992
0.0036179754544098048
0.0055063299306217705
0.00504725525407859
0.0055063299306828285
0.0077917928842678895
0.007339360313829196
0.007791792884354567
0.010461600765407666
0.010016356182338289
0.010461600765524406
0.013504293357733496
0.013066628011189862
0.01350429335788442
0.016908626609062866
0.016478830573736794
0.01690862660925187
0.020663372520631766
0.02024165641076346
0.020663372520862613
0.02475727925116046
0.02434380036365136
0.02475727925143664
0.029179076988252842
0.028773953872471725
0.029179076988577697
0.033917484377085826
0.03352080683565313
0.03391748437745941
0.03896121268092137
0.03857304864949431
0.03896121268134015
0.044298968115086754
0.04391936861177873
0.04429896811554329
0.0499194532811404
0.04954845601423955
0.049919453281624476
0.05581136811943776
0.0554490001547051
0.05581136811994883
0.061963410577864426
0.06160969033441279
0.06196341057840205
0.06836427709403675
0.06801921585575012
0.06836427709460025
0.0750026629486703
0.07466626602136356
0.07500266294925924
0.08186726252791161
0.08153953013392516
0.08186726252852518
0.08894676952054495
0.0886276974960974
0.08894676952118268
0.09622987706810258
0.09591945741053418
0.09622987706876376
0.10370527788053452
0.10340349917988298
0.10370527788121853
0.11136166432640544
0.11106851210678119
0.11136166432711139
0.11918772850407025
0.11890318549385703
0.11918772850476748
0.1271721622984645
0.12689620864379403
0.12717216229912448
0.1353036574271692
0.13503627085969797
0.13530365742778902
0.14357090547878382
0.14331206144634237
0.14357090547936102
0.15196259794624467
0.15171226971311944
0.1519625979467767
0.16046742625638558
0.16022558497487946
0.1604674262568704
0.16907408177883607
0.16884069652592332
0.16907408177927213
0.17777125574763175
0.1775462934406367
0.17777125574801705
0.18654763869893118
0.18633106381752612
0.18654763869926438
0.1953919187337899
0.19518369203557243
0.19539191873406925
0.20429277369387047
0.20409285640895727
0.20429277369409538
0.21323886175827303
0.2130472418706493
0.21323886175844223
0.22221877056423409
0.22203568128642856
0.22221877056434752
0.23122117239270437
0.23104689908634124
0.2312211723927616
0.000907138540388485
0.0009223120334594775
0.0009071385403896857
0.001971419598647954
0.001979255009986332
0.001971419598650335
0.003282657875249633
0.0033126709005096167
0.0032826578752529673
0.0049045940231650575
0.004946432813073096
0.00490459402316912
0.006869139591558921
0.00691745923199804
0.006869139591563539
0.009191529245536666
0.009242950258076761
0.00919152924554171
0.011875405149370681
0.011928228091400803
0.011875405149376054
0.014918012099910795
0.014971241935413748
0.014918012099916436
0.01831309997798863
0.018366101176146815
0.018313099977994497
0.02205245624875414
0.022104795537025677
0.02205245624876021
0.026126732667677028
0.026178106041739636
0.02612673266768322
0.030525900995849398
0.030576090692847013
0.03052590099585578
0.03523951302167955
0.03528836029879559
0.03523951302168607
0.04025685343165838
0.040304240594831786
0.04025685343166502
0.045567032396304996
0.045612870784692096
0.04556703239631174
0.05115904321527464
0.05120326504910002
0.05115904321528151
0.05702179914654387
0.05706435190989594
0.05702179914655089
0.06314415750373722
0.06318500000884314
0.06314415750374436
0.06951493577224933
0.06955403535667956
0.06951493577225652
0.07612292260658989
0.0761602531064765
0.07612292260659723
0.08295688547471365
0.08299242573822302
0.082956885474721
0.09000557606276949
0.09003930884547624
0.09000557606277697
0.09725773415683822
0.09728964529091268
0.09725773415684587
0.10470209047163637
0.10473216823394695
0.10470209047164408
0.11232736873990234
0.11235560336639998
0.11232736873991021
0.12012228727535451
0.1201486705842672
0.12012228727536242
0.12807556015574686
0.12810008525257735
0.12807556015575497
0.13617589812868022
0.1361985591732903
0.13617589812868836
0.14441200931279383
0.1444328013338093
0.144412009312802
0.15277259974648033
0.1527915184915005
0.15277259974648866
0.16124637382163068
0.16126341563234187
0.16124637382163903
0.16982203462951231
0.16983719633764552
0.16982203462952056
0.17848828421920723
0.17850156306799617
0.17848828421921573
0.18723382380441692
0.1872452176296525
0.18723382380442516
0.19604735334682863
0.19605686161932012
0.19604735334683687
0.204917570858196
0.20492520016172625
0.20491757085820436
0.21383315239223666
0.2138389276891899
0.21383315239224512
0.22278278890601255
0.22278678990819856
0.22278278890602102
0.2317554065218708
0.23175810263210778
0.23175540652187937
0.2402384126962702
0.2402413339426246
0.24023841269627833
0.24006470886177983
0.24006804123148362
0.24006470886178718
0.24023841269626983
0.24024133394262356
0.24023841269627655
0.23175540652198534
0.23175810263222069
0.23175540652199092
0.22278278890623932
0.22278678990842396
0.22278278890624492
0.21383315239257528
0.2138389276895268
0.21383315239258047
0.20491757085864507
0.20492520016217375
0.20491757085864998
0.1960473533473863
0.19605686161987596
0.19604735334739115
0.1872338238050813
0.18724521763031501
0.18723382380508585
0.17848828421997578
0.17850156306876264
0.17848828421998025
0.16982203463038156
0.16983719633851274
0.16982203463038595
0.16124637382259752
0.16126341563330637
0.16124637382260157
0.15277259974754098
0.15279151849255865
0.1527725997475447
0.14441200931394393
0.14443280133495684
0.14441200931394724
0.1361758981299153
0.13619855917452242
0.13617589812991832
0.12807556015706165
0.12810008525388916
0.12807556015706442
0.12012228727674343
0.12014867058565296
0.12012228727674577
0.11232736874130811
0.11235560336780258
0.11232736874131019
0.1047020904729981
0.10473216823530529
0.10470209047299983
0.09725773415815436
0.09728964529222539
0.09725773415815586
0.09000557606403857
0.09003930884674191
0.09000557606403978
0.08295688547593441
0.0829924257394403
0.08295688547593533
0.07612292260776114
0.07616025310764421
0.0761229226077617
0.06951493577336983
0.06955403535779632
0.06951493577337017
0.0631441575048058
0.06318500000990786
0.06314415750480581
0.05702179914755945
0.057064351910907564
0.057021799147559116
0.05115904321623609
0.05120326505005743
0.051159043216235434
0.04556703239721138
0.04561287078559441
0.04556703239721043
0.04025685343248933
0.04030424059565853
0.04025685343248808
0.035239513022420246
0.03528836029953202
0.03523951302241871
0.03052590099649293
0.030576090693486255
0.030525900996491145
0.026126732668223653
0.026178106042282014
0.026126732668221624
0.0220524562492105
0.022104795537477774
0.022052456249208218
0.018313099978361804
0.018366101176515742
0.018313099978359296
0.014918012100208315
0.014971241935707088
0.014918012100205585
0.011875405149600476
0.011928228091626532
0.011875405149597581
0.00919152924570712
0.009242950258243331
0.009191529245704112
0.006869139591679083
0.0069174592321146295
0.006869139591676059
0.00490459402324659
0.0049464328131515346
0.004904594023243685
0.003282657875300819
0.0033126709005583733
0.0032826578752982428
0.0019714195986760305
0.001979255010012592
0.0019714195986740646
0.0009071385403997302
0.0009223120334696138
0.0009071385403987248
0.0
0.0
0.0
0.0
0.0
0.0
0.0
0.0
0.0
0.0004661657966513645
6.8084338316744435e-06
0.000466165796651392
0.0011017529047325496
0.0006105713702758861
0.0011017529047374986
0.002142448974696875
0.001669295074144522
0.002142448974712871
0.0036179754543747534
0.003152323106040694
0.0036179754544063795
0.005506329930628304
0.005047255254080587
0.005506329930679825
0.007791792884274847
0.007339360313831605
0.00779179288435203
0.01046160076541501
0.010016356182341115
0.010461600765522362
0.013504293357741223
0.0130666280111931
0.01350429335788288
0.016908626609070908
0.016478830573740423
0.016908626609250826
0.020663372520640128
0.020241656410767497
0.020663372520862085
0.024757279251169134
0.0243438003636558
0.0247572792514366
0.029179076988261835
0.02877395387247654
0.02917907698857815
0.03391748437709509
0.03352080683565833
0.03391748437746034
0.03896121268093091
0.03857304864949987
0.03896121268134157
0.04429896811509658
0.04391936861178471
0.04429896811554523
0.04991945328115062
0.049548456014245935
0.04991945328162697
0.05581136811944832
0.05544900015471195
0.05581136811995186
0.06196341057787527
0.06160969033442004
0.06196341057840561
0.06836427709404794
0.06801921585575785
0.06836427709460435
0.07500266294868176
0.0746662660213716
0.07500266294926382
0.08186726252792333
0.08153953013393361
0.08186726252853024
0.08894676952055688
0.0886276974961063
0.08894676952118823
0.0962298770681148
0.09591945741054325
0.09622987706876973
0.10370527788054712
0.10340349917989257
0.10370527788122501
0.11136166432641831
0.11106851210679118
0.11136166432711844
0.11918772850408332
0.11890318549386755
0.11918772850477515
0.127172162298478
0.12689620864380488
0.12717216229913267
0.13530365742718303
0.13503627085970926
0.13530365742779785
0.1435709054787978
0.14331206144635397
0.14357090547937018
0.15196259794625902
0.1517122697131316
0.1519625979467865
0.16046742625640015
0.16022558497489198
0.16046742625688062
0.16907408177885094
0.1688406965259361
0.16907408177928257
0.17777125574764674
0.1775462934406497
0.1777712557480281
0.1865476386989462
0.18633106381753933
0.18654763869927554
0.1953919187338047
0.1951836920355855
0.19539191873408057
0.20429277369388532
0.20409285640897062
0.20429277369410703
0.2132388617582881
0.21304724187066296
0.21323886175845447
0.2222187705642494
0.22203568128644247
0.22221877056436
0.23122117239272005
0.23104689908635528
0.23122117239277418
0.0004119303796504577
0.00041613204741697816
0.00041193037965140593
0.00014730046659775694
0.0001770063136602723
0.00014730046659795022
0.0004119303796543377
0.0004161320474201424
0.0004119303796534981
0.0011879594769108716
0.0012172641248098669
0.0011879594769128464
0.0007955393679379458
0.0008525021826885743
0.000795539367938338
0.0011879594769225654
0.0012172641248201542
0.0011879594769210768
0.0022971854266697943
0.002346639789314114
0.0022971854266723574
0.001871620584534372
0.0019368373910173238
0.001871620584534967
0.0022971854266931025
0.0023466397893355372
0.0022971854266914706
0.0037957806216112103
0.0038542098130837656
0.0037957806216141416
0.003355752004613654
0.0034233827518668535
0.0033557520046144525
0.003795780621650099
0.003854209813120525
0.003795780621648546
0.0056903678557620185
0.005751277369487504
0.005690367855765223
0.0052464881348395775
0.005313458367348703
0.00524648813484058
0.0056903678558206895
0.0057512773695439145
0.005690367855819299
0.007975867791849183
0.008036926415574287
0.007975867791852626
0.007533081126596553
0.007598381029953459
0.00753308112659776
0.007975867791933395
0.008036926415656183
0.007975867791932208
0.01064326674242737
0.010703530387881207
0.010643266742431013
0.010204337874092128
0.010267744903934495
0.010204337874093534
0.010643266742541605
0.01070353038799311
0.010643266742540652
0.013682354640399703
0.013741413869740206
0.013682354640403524
0.013248880766919864
0.013310357176761612
0.013248880766921475
0.013682354640548088
0.013741413869886266
0.013682354640547366
0.017082399902198505
0.017140031769855395
0.017082399902202516
0.016655375457550567
0.016714924616938374
0.01665537545755239
0.017082399902384988
0.017140031770039546
0.017082399902384516
0.02083242776184676
0.020888494310679795
0.020832427761850937
0.020412503221176593
0.020470129174019278
0.020412503221178605
0.02083242776207508
0.020888494310905854
0.020832427762074848
0.02492133313549299
0.024975742443935595
0.02492133313549731
0.024508951854309832
0.02456465640487381
0.024508951854312046
0.02492133313576667
0.02497574244420701
0.024921333135766673
0.029337937076977978
0.02939062590270201
0.029337937076982443
0.028933410551167327
0.02898719418673189
0.02893341055116974
0.0293379370773003
0.029390625903022077
0.029337937077300553
0.03407101655720784
0.034121940354025396
0.034071016557212494
0.033674568701918296
0.0337264315082023
0.03367456870192088
0.03407101655757892
0.03412194035439428
0.0340710165575794
0.03910932122857285
0.039158447959356635
0.03910932122857764
0.038721115659774444
0.03877105763436848
0.03872111565977719
0.0391093212289892
0.03915844795977076
0.039109321228989906
0.044441583210902434
0.04448888937118752
0.04444158321090737
0.044061740744603305
0.04410976187909883
0.044061740744606274
0.044441583211356515
0.044488889371639535
0.04444158321135749
0.05005652301323859
0.05010199104068764
0.05005652301324368
0.049685133263001426
0.04973123355344756
0.049685133263004645
0.0500565230137203
0.05010199104116724
0.05005652301372153
0.055942853236651734
0.05598646979251275
0.055942853236656986
0.05557998251805074
0.0556241619632688
0.05557998251805418
0.05594285323716045
0.05598646979301948
0.05594285323716197
0.062089280962066506
0.06213103576782883
0.06208928096207194
0.061734977812262344
0.06177723641202077
0.061734977812265994
0.06208928096260185
0.062131035768362194
0.06208928096260366
0.0684845093335613
0.06852439436673209
0.06848450933356687
0.06813880844818265
0.06817914620247222
0.06813880844818646
0.06848450933412253
0.06852439436729141
0.06848450933412462
0.07511723863456968
0.07515524756167416
0.07511723863457542
0.07478016372842436
0.07481858063726071
0.07478016372842844
0.07511723863515635
0.07515524756225894
0.07511723863515866
0.08197616703574609
0.08201229480540054
0.08197616703575189
0.08164773295562965
0.0816842290190211
0.0816477329556339
0.08197616703635743
0.08201229480601017
0.08197616703636003
0.08904999112507545
0.0890842336712505
0.08904999112508136
0.08873020543244882
0.08876478065039826
0.08873020543245318
0.089049991125711
0.08908423367188437
0.0890499911257138
0.09632740629044884
0.09635976031295773
0.09632740629045494
0.09601627046153353
0.09604892483404265
0.09601627046153809
0.09632740629110795
0.09635976031361515
0.09632740629111096
0.10379710700034875
0.1038275698003388
0.10379710700035509
0.1034946173455359
0.10352535087260889
0.10349461734554068
0.10379710700103076
0.10382756980101898
0.10379710700103399
0.11144778701294072
0.11147635636813634
0.11144778701294718
0.11115393538711041
0.11118274806875866
0.11115393538711549
0.11144778701364459
0.11147635636883872
0.11144778701364814
0.11926813953408355
0.11929481360313979
0.11926813953409009
0.11898291388892451
0.11900980572516605
0.11898291388892972
0.11926813953477884
0.11929481360383355
0.11926813953478266
0.12724685733830984
0.12727163458671584
0.12724685733831664
0.12697024215368669
0.12699521314448706
0.12697024215369218
0.127246857338968
0.1272716345873726
0.1272468573389721
0.13537263286271706
0.13539551200471336
0.13537263286272389
0.135104609484188
0.13512765962916173
0.13510460948419353
0.13537263286333523
0.13539551200532993
0.13537263286333948
0.14363415828066467
0.14365513823289805
0.14363415828067175
0.14337470518320056
0.14339583448056945
0.14337470518320639
0.1436341582812403
0.14365513823347237
0.14363415828124484
0.15202012555974453
0.15203920540310048
0.1520201255597517
0.15176921855251074
0.1517884269970109
0.1517692185525168
0.15202012556027508
0.15203920540362972
0.15202012556027994
0.16051922650634137
0.16053640545567507
0.16051922650634873
0.16027683888836786
0.16029412647050953
0.16027683888837407
0.16051922650682485
0.16053640545615727
0.16051922650682998
0.16912015279503045
0.16913543018728588
0.1691201527950378
0.16888625546827926
0.1689016222018178
0.16888625546828565
0.16912015279546497
0.16913543018771962
0.16912015279547046
0.17781159599134758
0.17782497137657396
0.17781159599135504
0.17758615751298287
0.1775996035754463
0.1775861575129893
0.1778115959917318
0.17782497137695713
0.1778115959917372
0.18658224756726235
0.1865937211098319
0.1865822475672698
0.18636523416401818
0.18637676056780106
0.18636523416402487
0.18658224756759442
0.186593721110163
0.1865822475676
0.19542079933775405
0.1954303736473676
0.1954207993377613
0.19521217449838152
0.19522178478756555
0.19521217449838807
0.19542079933803244
0.19543037364764498
0.1954207993380382
0.2043159439528371
0.2043236278699697
0.20431594395284447
0.2041156719837463
0.20412337874707315
0.2041156719837528
0.204315943953061
0.20432362787019287
0.20431594395306668
0.21325638670198072
0.2132622103486987
0.21325638670198838
0.21306444698903867
0.2130702847687501
0.21306444698904545
0.2132563867021493