# vtk DataFile Version 2.0
mesh vtk view
ASCII
DATASET UNSTRUCTURED_GRID
POINTS 1025 double
0.0 0.0 0.0
793.2980773020244 -89.62763753237319 -0.0021242641389490713
806.7019226979901 -9.627637532373242 0.002124264339530036
0.0 80.0 0.0
0.0 0.0 80.0
793.29807730201 -89.62763753237853 80.00212426433437
806.701922697976 -9.627637532378586 79.99787573586627
0.0 80.0 80.0
19.69173886573402 -0.11980313397770127 -0.1765539640228066
39.38385991134635 -0.3306224036867397 -0.20451185308220024
59.07690807570196 -0.7228895970586647 -0.21074010246451025
78.7715371555965 -1.2747624212330022 -0.20638452967880722
98.47251109076954 -1.980078688732249 -0.20048615624227548
118.18126216137392 -2.8332290914900575 -0.19455615960820813
137.89833766579014 -3.829929854918487 -0.18875440915605765
157.62385075814927 -4.96595545117795 -0.18301351607259467
177.357817061547 -6.237099611173241 -0.17729106743053846
197.10023299751495 -7.639144634928862 -0.17157224451113331
216.8510957087792 -9.167869349925505 -0.1658535748156274
236.61040406388022 -10.819051280942556 -0.1601346621053943
256.3781577713817 -12.588467747598793 -0.15441561743818466
276.15435678646026 -14.471896059592373 -0.14869652967992483
295.93900111309915 -16.46511354444709 -0.14297743246042074
315.73209075711566 -18.563897538374782 -0.13725833439693136
335.53362572100673 -20.764025380441602 -0.13153923674968676
355.3436060054775 -23.061274410311974 -0.12582013937893616
375.16203161065386 -25.45142196769904 -0.12010104210648327
394.9889025365356 -27.93024539228616 -0.11438194485766152
414.82421878311135 -30.49352202373814 -0.10866284761162354
434.66798035037573 -33.13702920171336 -0.10294375036453897
454.5201872383263 -35.85654426586865 -0.09722465311609005
474.3808394469604 -38.64784455586042 -0.09150555586692219
494.2499369762704 -41.50670741134257 -0.08578645862356236
514.1274798263182 -44.42891017197063 -0.08006736141834045
534.0134679971072 -47.41023017736284 -0.07434826435784829
553.9079014887917 -50.44644476709876 -0.06862916766793484
573.8107803024615 -53.53333128087147 -0.06291007138907559
593.7221044416223 -56.66666705936722 -0.05719097318768278
613.6418739134734 -59.84222944714083 -0.0514718595920149
633.5700887168878 -63.055795801285065 -0.04575268272130972
653.5067487693864 -66.3031434923958 -0.040033327655512124
673.4518536057229 -69.58004987400182 -0.03431372335338
693.4054017211822 -72.8822915135213 -0.028594764130998485
713.3673886613406 -76.2056413334517 -0.022883998814556866
733.3378053289663 -79.54584497605602 -0.017212928657545645
753.3165948843738 -82.8986014592422 -0.01172632397223484
773.3035220634889 -86.25957980339946 -0.006428095648352525
796.65548978342 -69.62453319332322 -3.987325893793352e-05
799.999999999997 -49.62224931706997 1.0032840292678984e-10
803.3445102165831 -29.62453319331651 3.987345955138147e-05
786.6964779365582 -6.259579803441767 0.006428095841819364
766.6834051157065 -2.8986014593265708 0.011726324158516434
746.6621946711473 0.4541550238178189 0.017212928836669045
726.6326113388063 3.7943586663808304 0.022883998986498608
706.5945982789984 7.117708486270388 0.028594764295693985
686.5481463944915 10.41995012574992 0.034313723510929164
666.4932512308621 13.696856507317065 0.040033327805979714
646.429911283395 16.944204198389897 0.045752682864595016
626.3581260868439 20.15777055249766 0.05147185972827325
606.2778955587295 23.333332940236076 0.057190973316866886
586.1892196979252 26.466668718698287 0.06291007151126275
566.0920985116298 29.55355523243921 0.06862916778317923
545.9865320033496 32.58976982214516 0.07434826446620911
525.8725201741739 35.571089827509645 0.08006736151996544
505.75006302425646 38.493292588131304 0.08578645871856463
485.6191605536003 41.352155443629954 0.09150555595543562
465.4798127622682 44.14345573363879 0.09722465319827607
445.3320196502525 46.8629707978117 0.10294375044053657
425.1757812175503 49.506477975805 0.10866284768158026
405.0110974641597 52.06975460727548 0.11438194492174343
384.83796839007493 54.54857803188162 0.12010104216488557
364.6563939952849 56.938725589288154 0.1258201394318551
344.4663742797891 59.23597461917837 0.1315392367973032
324.2679092437134 61.43610246126547 0.13725833443947402
304.0609988877632 63.5348864552138 0.1429774324980998
283.84564321435903 65.52810394009681 0.14869652971297867
263.62184222932706 67.41153225212426 0.154415617466891
243.38959593676384 69.18094871881699 0.16013466213002783
223.1489042918243 70.83213064987046 0.16585357483647784
202.89976700304766 72.36085536490107 0.17157224452848377
182.64218293897449 73.76290038868802 0.17729106744466308
162.37614924233065 75.03404454871185 0.1830135160837983
142.10166233464818 76.17007014499693 0.1887544091646565
121.8187378390226 77.16677090844787 0.19455615961452075
101.52748890958209 78.01992131122485 0.20048615624664215
81.22846284468058 78.72523757873897 0.20638452968159657
60.92309192449754 79.27711040292512 0.21074010246618796
40.61614008878413 79.66937759630595 0.20451185308330733
20.30826113433372 79.88019686602034 0.17655396402394835
0.0 60.0 0.0
0.0 40.0 0.0
0.0 20.0 0.0
19.69173886573329 -0.11980313397825185 80.17655396402296
39.38385991134489 -0.3306224036875129 80.2045118530827
59.07690807569978 -0.7228895970596048 80.21074010246579
78.7715371555936 -1.2747624212340813 80.20638452968124
98.47251109076595 -1.9800786887334645 80.20048615624623
118.18126216136965 -2.8332290914914076 80.19455615961402
137.8983376657852 -3.8299298549199783 80.18875440916406
157.6238507581437 -4.965955451179584 80.18301351608312
177.3578170615408 -6.237099611175005 80.1772910674439
197.1002329975082 -7.639144634930755 80.17157224452765
216.85109570877185 -9.16786934992754 80.16585357483557
236.61040406387232 -10.819051280944713 80.16013466212904
256.3781577713733 -12.588467747601083 80.15441561746582
276.1543567864513 -14.471896059594789 80.1486965297118
295.9390011130897 -16.465113544449647 80.14297743249678
315.7320907571058 -18.563897538377468 80.137258334438
335.5336257209964 -20.764025380444476 80.13153923679567
355.3436060054668 -23.061274410314965 80.12582013943009
375.1620316106427 -25.451421967702174 80.12010104216299
394.9889025365241 -27.930245392289432 80.1143819449197
414.8242187830995 -30.493522023741498 80.10866284767941
434.66798035036356 -33.13702920171684 80.10294375043823
454.52018723831384 -35.856544265872266 80.09722465319587
474.3808394469477 -38.64784455586418 80.09150555595289
494.2499369762575 -41.50670741134646 80.08578645871583
514.127479826305 -44.428910171974664 80.08006736151704
534.0134679970938 -47.41023017736705 80.07434826446305
553.9079014887781 -50.4464447671031 80.06862916777979
573.8107803024477 -53.53333128087585 80.06291007150769
593.7221044416085 -56.66666705937178 80.05719097331306
613.6418739134594 -59.84222944714552 80.05147185972426
633.5700887168738 -63.05579580128987 80.04575268286044
653.5067487693723 -66.30314349240065 80.04003332780164
673.4518536057088 -69.58004987400678 80.03431372350643
693.405401721168 -72.88229151352621 80.02859476429111
713.3673886613263 -76.20564133345657 80.02288399898175
733.3378053289521 -79.5458449760611 80.01721292883175
753.3165948843596 -82.89860145924736 80.01172632415339
773.3035220634747 -86.25957980340473 80.00642809583667
796.6554897834058 -69.62453319332853 80.00003987345696
799.9999999999828 -49.622249317075315 80.0000000001003
803.344510216569 -29.624533193321852 79.99996012674364
786.696477936544 -6.259579803447096 79.99357190435695
766.6834051156924 -2.898601459331843 79.98827367603313
746.6621946711331 0.45415502381263195 79.9827870713478
726.6326113387922 3.794358666375814 79.97711600119071
706.5945982789843 7.117708486265485 79.9714052358743
686.5481463944774 10.419950125745032 79.96568627665195
666.493251230848 13.696856507312233 79.95996667234975
646.429911283381 16.944204198385307 79.95424731728393
626.35812608683 20.157770552493098 79.9485281404132
606.2778955587157 23.333332940231642 79.9428090268175
586.1892196979115 26.466668718694017 79.93708992861606
566.0920985116163 29.553555232435038 79.93137083233715
545.9865320033362 32.58976982214123 79.92565173564714
525.8725201741607 35.57108982750588 79.91993263858654
505.7500630242435 38.493292588127744 79.9142135413812
485.6191605535876 41.35215544362656 79.90849444413769
465.47981276225573 44.14345573363557 79.90277534688836
445.33201965024034 46.8629707978086 79.89705624963973
425.1757812175385 49.50647797580204 79.89133715239252
405.01109746414824 52.06975460727271 79.88561805514632
384.83796839006385 54.548578031879 79.87989895789734
364.65639399527413 56.93872558928571 79.87417986062472
344.46637427977873 59.23597461917612 79.86846076325381
324.2679092437035 61.43610246126339 79.86274166560639
304.0609988877538 63.53488645521189 79.85702256754273
283.8456432143501 65.52810394009508 79.85130347032306
263.6218422293186 67.41153225212267 79.84558438256462
243.3895959367559 69.18094871881557 79.83986533789721
223.14890429181693 70.8321306498692 79.83414642518676
202.8997670030409 72.36085536489995 79.82842775549103
182.6421829389683 73.76290038868707 79.82270893257142
162.37614924232506 75.03404454871107 79.81698648392914
142.10166233464324 76.17007014499632 79.81124559084546
121.81873783901833 77.16677090844743 79.8054438403931
101.5274889095785 78.01992131122458 79.7995138437588
81.22846284467768 78.72523757873887 79.79361547032202
60.92309192449535 79.27711040292516 79.78925989753597
40.616140088782664 79.66937759630613 79.79548814691778
20.308261134332987 79.88019686602063 79.82344603597647
0.0 60.0 80.0
0.0 40.0 80.0
0.0 20.0 80.0
0.0 0.0 20.0
0.0 0.0 40.0
0.0 0.0 60.0
793.2955466325385 -89.62970598079639 19.998635462604867
793.2949830854442 -89.63054534564215 40.00000000009768
793.2955466325313 -89.62970598079914 60.00136453759054
806.7044533674688 -9.629705980796459 20.001364537595755
806.705016914556 -9.630545345642147 40.00000000010294
806.7044533674617 -9.629705980799159 59.99863546261009
0.0 80.0 20.0
0.0 80.0 40.0
0.0 80.0 60.0
[...]
POINT_DATA 1025
SCALARS CellEntityIds float 1
LOOKUP_TABLE default
0.0
0.24074425986738604
0.24074425986738907
0.0
0.0
0.24074425986740317
0.24074425986740053
0.0
0.001004192891813903
0.0019514360400759035
0.0031908514725120895
0.004774124164724091
0.006720027353169445
0.009033120859295677
0.011712733297831525
0.014754113334865699
0.018149960145209282
0.021891421461382028
0.02596873743662169
0.030371607228835657
0.03508939873915365
0.04011127023476055
0.04542624329606068
0.051023247976365156
0.056891151593606346
0.06301877756074192
0.06939491798467823
0.07600834227096114
0.08284780311215043
0.08990204072813242
0.0971597859169771
0.10460976228269571
0.11224068788449405
0.12004127647358906
0.1280002384319222
0.13610628149301462
0.14434811130194042
0.152714431856604
0.16119394586368405
0.16977535504461094
0.1784473603832527
0.1871986623018334
0.19601795890464727
0.20489393887711976
0.2138152187538368
0.22277030038753623
0.2317476403859368
0.2402328076846061
0.24005959638484575
0.2402328076846063
0.23174764038605278
0.22277030038776477
0.21381521875417708
0.2048939388775705
0.1960179589052072
0.1871986623025002
0.17844736038402348
0.16977535504548305
0.1611939458646537
0.1527144318576677
0.1443481113030938
0.136106281494253
0.12800023843324063
0.12004127647498156
0.11224068788590369
0.1046097622840614
0.09715978591829728
0.08990204072940562
0.08284780311337543
0.0760083422721368
0.06939491798580319
0.06301877756181495
0.05689115159462647
0.051023247977331224
0.04542624329697172
0.04011127023559618
0.03508939873989906
0.030371607229483844
0.02596873743717294
0.021891421461842926
0.018149960145586903
0.014754113335167525
0.011712733298065398
0.009033120859469897
0.0067200273532929235
0.004774124164808187
0.0031908514725647024
0.0019514360401042515
0.0010041928918256926
0.0
0.0
0.0
0.001004192891816179
0.0019514360400805235
0.0031908514725187513
0.0047741241647322715
0.006720027353178736
0.009033120859305802
0.011712733297842311
0.01475411333487703
0.01814996014522104
0.02189142146139414
0.02596873743663416
0.03037160722884839
0.03508939873916666
0.040111270234773795
0.0454262432960742
0.051023247976378895
0.056891151593620445
0.06301877756075619
0.06939491798469274
0.07600834227097587
0.08284780311216525
0.08990204072814742
0.0971597859169923
0.10460976228271114
0.11224068788450964
0.12004127647360487
0.1280002384319383
0.13610628149303095
0.14434811130195666
0.15271443185662056
0.1611939458637008
0.16977535504462785
0.17844736038326955
0.18719866230185037
0.19601795890466397
0.20489393887713617
0.21381521875385368
0.22277030038755313
0.2317476403859538
0.2402328076846217
0.24005959638486007
0.24023280768461922
0.23174764038606402
0.2227703003877757
0.21381521875418769
0.20489393887758045
0.19601795890521673
0.18719866230250948
0.17844736038403244
0.16977535504549118
0.16119394586466157
0.15271443185767508
0.14434811130310052
0.13610628149425927
0.1280002384332461
0.12004127647498643
0.11224068788590782
0.10460976228406492
0.09715978591830016
0.08990204072940798
0.08284780311337722
0.07600834227213793
0.06939491798580372
0.06301877756181487
0.056891151594625704
0.05102324797732984
0.045426243296969745
0.040111270235593556
0.03508939873989591
0.030371607229480138
0.025968737437168685
0.02189142146183818
0.018149960145581633
0.014754113335161814
0.011712733298059313
0.009033120859463539
0.006720027353286474
0.004774124164801921
0.00319085147255906
0.0019514360400998993
0.0010041928918233093
0.0
0.0
0.0
0.0
0.0
0.0
0.24075029043204435
0.24075264504170085
0.2407502904320531
0.240750290432046
0.24075264504170088
0.2407502904320518
0.0
0.0
0.0
0.0004661657966493285
6.808433831272397e-06
0.00046616579665365965
0.0011017529047283568
0.0006105713702751013
0.0011017529047410936
0.0021424489746915227
0.0016692950741433352
0.002142448974716591
0.0036179754543687226
0.0031523231060390992
0.0036179754544098048
0.0055063299306217705
0.00504725525407859
0.0055063299306828285
0.0077917928842678895
0.007339360313829196
0.007791792884354567
0.010461600765407666
0.010016356182338289
0.010461600765524406
0.013504293357733496
0.013066628011189862
0.01350429335788442
0.016908626609062866
0.016478830573736794
0.01690862660925187
0.020663372520631766
0.02024165641076346
0.020663372520862613
0.02475727925116046
0.02434380036365136
0.02475727925143664
0.029179076988252842
0.028773953872471725
0.029179076988577697
0.033917484377085826
0.03352080683565313
0.03391748437745941
0.03896121268092137
0.03857304864949431
0.03896121268134015
0.044298968115086754
0.04391936861177873
0.04429896811554329
0.0499194532811404
0.04954845601423955
0.049919453281624476
0.05581136811943776
0.0554490001547051
0.05581136811994883
0.061963410577864426
0.06160969033441279
0.06196341057840205
0.06836427709403675
0.06801921585575012
0.06836427709460025
0.0750026629486703
0.07466626602136356
0.07500266294925924
0.08186726252791161
0.08153953013392516
0.08186726252852518
0.08894676952054495
0.0886276974960974
0.08894676952118268
0.09622987706810258
0.09591945741053418
0.09622987706876376
0.10370527788053452
0.10340349917988298
0.10370527788121853
0.11136166432640544
0.11106851210678119
0.11136166432711139
0.11918772850407025
0.11890318549385703
0.11918772850476748
0.1271721622984645
0.12689620864379403
0.12717216229912448
0.1353036574271692
0.13503627085969797
0.13530365742778902
0.14357090547878382
0.14331206144634237
0.14357090547936102
0.15196259794624467
0.15171226971311944
0.1519625979467767
0.16046742625638558
0.16022558497487946
0.1604674262568704
0.16907408177883607
0.16884069652592332
0.16907408177927213
0.17777125574763175
0.1775462934406367
0.17777125574801705
0.18654763869893118
0.18633106381752612
0.18654763869926438
0.1953919187337899
0.19518369203557243
0.19539191873406925
0.20429277369387047
0.20409285640895727
0.20429277369409538
0.21323886175827303
0.2130472418706493
0.21323886175844223
0.22221877056423409
0.22203568128642856
0.22221877056434752
0.23122117239270437
0.23104689908634124
0.2312211723927616
0.000907138540388485
0.0009223120334594775
0.0009071385403896857
0.001971419598647954
0.001979255009986332
0.001971419598650335
0.003282657875249633
0.0033126709005096167
0.0032826578752529673
0.0049045940231650575
0.004946432813073096
0.00490459402316912
0.006869139591558921
0.00691745923199804
0.006869139591563539
0.009191529245536666
0.009242950258076761
0.00919152924554171
0.011875405149370681
0.011928228091400803
0.011875405149376054
0.014918012099910795
0.014971241935413748
0.014918012099916436
0.01831309997798863
0.018366101176146815
0.018313099977994497
0.02205245624875414
0.022104795537025677
0.02205245624876021
0.026126732667677028
0.026178106041739636
0.02612673266768322
0.030525900995849398
0.030576090692847013
0.03052590099585578
0.03523951302167955
0.03528836029879559
0.03523951302168607
0.04025685343165838
0.040304240594831786
0.04025685343166502
0.045567032396304996
0.045612870784692096
0.04556703239631174
0.05115904321527464
0.05120326504910002
0.05115904321528151
0.05702179914654387
0.05706435190989594
0.05702179914655089
0.06314415750373722
0.06318500000884314
0.06314415750374436
0.06951493577224933
0.06955403535667956
0.06951493577225652
0.07612292260658989
0.0761602531064765
0.07612292260659723
0.08295688547471365
0.08299242573822302
0.082956885474721
0.09000557606276949
0.09003930884547624
0.09000557606277697
0.09725773415683822
0.09728964529091268
0.09725773415684587
0.10470209047163637
0.10473216823394695
0.10470209047164408
0.11232736873990234
0.11235560336639998
0.11232736873991021
0.12012228727535451
0.1201486705842672
0.12012228727536242
0.12807556015574686
0.12810008525257735
0.12807556015575497
0.13617589812868022
0.1361985591732903
0.13617589812868836
0.14441200931279383
0.1444328013338093
0.144412009312802
0.15277259974648033
0.1527915184915005
0.15277259974648866
0.16124637382163068
0.16126341563234187
0.16124637382163903
0.16982203462951231
0.16983719633764552
0.16982203462952056
0.17848828421920723
0.17850156306799617
0.17848828421921573
0.18723382380441692
0.1872452176296525
0.18723382380442516
0.19604735334682863
0.19605686161932012
0.19604735334683687
0.204917570858196
0.20492520016172625
0.20491757085820436
0.21383315239223666
0.2138389276891899
0.21383315239224512
0.22278278890601255
0.22278678990819856
0.22278278890602102
0.2317554065218708
0.23175810263210778
0.23175540652187937
0.2402384126962702
0.2402413339426246
0.24023841269627833
0.24006470886177983
0.24006804123148362
0.24006470886178718
0.24023841269626983
0.24024133394262356
0.24023841269627655
0.23175540652198534
0.23175810263222069
0.23175540652199092
0.22278278890623932
0.22278678990842396
0.22278278890624492
0.21383315239257528
0.2138389276895268
0.21383315239258047
0.20491757085864507
0.20492520016217375
0.20491757085864998
0.1960473533473863
0.19605686161987596
0.19604735334739115
0.1872338238050813
0.18724521763031501
0.18723382380508585
0.17848828421997578
0.17850156306876264
0.17848828421998025
0.16982203463038156
0.16983719633851274
0.16982203463038595
0.16124637382259752
0.16126341563330637
0.16124637382260157
0.15277259974754098
0.15279151849255865
0.1527725997475447
0.14441200931394393
0.14443280133495684
0.14441200931394724
0.1361758981299153
0.13619855917452242
0.13617589812991832
0.12807556015706165
0.12810008525388916
0.12807556015706442
0.12012228727674343
0.12014867058565296
0.12012228727674577
0.11232736874130811
0.11235560336780258
0.11232736874131019
0.1047020904729981
0.10473216823530529
0.10470209047299983
0.09725773415815436
0.09728964529222539
0.09725773415815586
0.09000557606403857
0.09003930884674191
0.09000557606403978
0.08295688547593441
0.0829924257394403
0.08295688547593533
0.07612292260776114
0.07616025310764421
0.0761229226077617
0.06951493577336983
0.06955403535779632
0.06951493577337017
0.0631441575048058
0.06318500000990786
0.06314415750480581
0.05702179914755945
0.057064351910907564
0.057021799147559116
0.05115904321623609
0.05120326505005743
0.051159043216235434
0.04556703239721138
0.04561287078559441
0.04556703239721043
0.04025685343248933
0.04030424059565853
0.04025685343248808
0.035239513022420246
0.03528836029953202
0.03523951302241871
0.03052590099649293
0.030576090693486255
0.030525900996491145
0.026126732668223653
0.026178106042282014
0.026126732668221624
0.0220524562492105
0.022104795537477774
0.022052456249208218
0.018313099978361804
0.018366101176515742
0.018313099978359296
0.014918012100208315
0.014971241935707088
0.014918012100205585
0.011875405149600476
0.011928228091626532
0.011875405149597581
0.00919152924570712
0.009242950258243331
0.009191529245704112
0.006869139591679083
0.0069174592321146295
0.006869139591676059
0.00490459402324659
0.0049464328131515346
0.004904594023243685
0.003282657875300819
0.0033126709005583733
0.0032826578752982428
0.0019714195986760305
0.001979255010012592
0.0019714195986740646
0.0009071385403997302
0.0009223120334696138
0.0009071385403987248
0.0
0.0
0.0
0.0
0.0
0.0
0.0
0.0
0.0
0.0004661657966513645
6.8084338316744435e-06
0.000466165796651392
0.0011017529047325496
0.0006105713702758861
0.0011017529047374986
0.002142448974696875
0.001669295074144522
0.002142448974712871
0.0036179754543747534
0.003152323106040694
0.0036179754544063795
0.005506329930628304
0.005047255254080587
0.005506329930679825
0.007791792884274847
0.007339360313831605
0.00779179288435203
0.01046160076541501
0.010016356182341115
0.010461600765522362
0.013504293357741223
0.0130666280111931
0.01350429335788288
0.016908626609070908
0.016478830573740423
0.016908626609250826
0.020663372520640128
0.020241656410767497
0.020663372520862085
0.024757279251169134
0.0243438003636558
0.0247572792514366
0.029179076988261835
0.02877395387247654
0.02917907698857815
0.03391748437709509
0.03352080683565833
0.03391748437746034
0.03896121268093091
0.03857304864949987
0.03896121268134157
0.04429896811509658
0.04391936861178471
0.04429896811554523
0.04991945328115062
0.049548456014245935
0.04991945328162697
0.05581136811944832
0.05544900015471195
0.05581136811995186
0.06196341057787527
0.06160969033442004
0.06196341057840561
0.06836427709404794
0.06801921585575785
0.06836427709460435
0.07500266294868176
0.0746662660213716
0.07500266294926382
0.08186726252792333
0.08153953013393361
0.08186726252853024
0.08894676952055688
0.0886276974961063
0.08894676952118823
0.0962298770681148
0.09591945741054325
0.09622987706876973
0.10370527788054712
0.10340349917989257
0.10370527788122501
0.11136166432641831
0.11106851210679118
0.11136166432711844
0.11918772850408332
0.11890318549386755
0.11918772850477515
0.127172162298478
0.12689620864380488
0.12717216229913267
0.13530365742718303
0.13503627085970926
0.13530365742779785
0.1435709054787978
0.14331206144635397
0.14357090547937018
0.15196259794625902
0.1517122697131316
0.1519625979467865
0.16046742625640015
0.16022558497489198
0.16046742625688062
0.16907408177885094
0.1688406965259361
0.16907408177928257
0.17777125574764674
0.1775462934406497
0.1777712557480281
0.1865476386989462
0.18633106381753933
0.18654763869927554
0.1953919187338047
0.1951836920355855
0.19539191873408057
0.20429277369388532
0.20409285640897062
0.20429277369410703
0.2132388617582881
0.21304724187066296
0.21323886175845447
0.2222187705642494
0.22203568128644247
0.22221877056436
0.23122117239272005
0.23104689908635528
0.23122117239277418
0.0004119303796504577
0.00041613204741697816
0.00041193037965140593
0.00014730046659775694
0.0001770063136602723
0.00014730046659795022
0.0004119303796543377
0.0004161320474201424
0.0004119303796534981
0.0011879594769108716
0.0012172641248098669
0.0011879594769128464
0.0007955393679379458
0.0008525021826885743
0.000795539367938338
0.0011879594769225654
0.0012172641248201542
0.0011879594769210768
0.0022971854266697943
0.002346639789314114
0.0022971854266723574
0.001871620584534372
0.0019368373910173238
0.001871620584534967
0.0022971854266931025
0.0023466397893355372
0.0022971854266914706
0.0037957806216112103
0.0038542098130837656
0.0037957806216141416
0.003355752004613654
0.0034233827518668535
0.0033557520046144525
0.003795780621650099
0.003854209813120525
0.003795780621648546
0.0056903678557620185
0.005751277369487504
0.005690367855765223
0.0052464881348395775
0.005313458367348703
0.00524648813484058
0.0056903678558206895
0.0057512773695439145
0.005690367855819299
0.007975867791849183
0.008036926415574287
0.007975867791852626
0.007533081126596553
0.007598381029953459
0.00753308112659776
0.007975867791933395
0.008036926415656183
0.007975867791932208
0.01064326674242737
0.010703530387881207
0.010643266742431013
0.010204337874092128
0.010267744903934495
0.010204337874093534
0.010643266742541605
0.01070353038799311
0.010643266742540652
0.013682354640399703
0.013741413869740206
0.013682354640403524
0.013248880766919864
0.013310357176761612
0.013248880766921475
0.013682354640548088
0.013741413869886266
0.013682354640547366
0.017082399902198505
0.017140031769855395
0.017082399902202516
0.016655375457550567
0.016714924616938374
0.01665537545755239
0.017082399902384988
0.017140031770039546
0.017082399902384516
0.02083242776184676
0.020888494310679795
0.020832427761850937
0.020412503221176593
0.020470129174019278
0.020412503221178605
0.02083242776207508
0.020888494310905854
0.020832427762074848
0.02492133313549299
0.024975742443935595
0.02492133313549731
0.024508951854309832
0.02456465640487381
0.024508951854312046
0.02492133313576667
0.02497574244420701
0.024921333135766673
0.029337937076977978
0.02939062590270201
0.029337937076982443
0.028933410551167327
0.02898719418673189
0.02893341055116974
0.0293379370773003
0.029390625903022077
0.029337937077300553
0.03407101655720784
0.034121940354025396
0.034071016557212494
0.033674568701918296
0.0337264315082023
0.03367456870192088
0.03407101655757892
0.03412194035439428
0.0340710165575794
0.03910932122857285
0.039158447959356635
0.03910932122857764
0.038721115659774444
0.03877105763436848
0.03872111565977719
0.0391093212289892
0.03915844795977076
0.039109321228989906
0.044441583210902434
0.04448888937118752
0.04444158321090737
0.044061740744603305
0.04410976187909883
0.044061740744606274
0.044441583211356515
0.044488889371639535
0.04444158321135749
0.05005652301323859
0.05010199104068764
0.05005652301324368
0.049685133263001426
0.04973123355344756
0.049685133263004645
0.0500565230137203
0.05010199104116724
0.05005652301372153
0.055942853236651734
0.05598646979251275
0.055942853236656986
0.05557998251805074
0.0556241619632688
0.05557998251805418
0.05594285323716045
0.05598646979301948
0.05594285323716197
0.062089280962066506
0.06213103576782883
0.06208928096207194
0.061734977812262344
0.06177723641202077
0.061734977812265994
0.06208928096260185
0.062131035768362194
0.06208928096260366
0.0684845093335613
0.06852439436673209
0.06848450933356687
0.06813880844818265
0.06817914620247222
0.06813880844818646
0.06848450933412253
0.06852439436729141
0.06848450933412462
0.07511723863456968
0.07515524756167416
0.07511723863457542
0.07478016372842436
0.07481858063726071
0.07478016372842844
0.07511723863515635
0.07515524756225894
0.07511723863515866
0.08197616703574609
0.08201229480540054
0.08197616703575189
0.08164773295562965
0.0816842290190211
0.0816477329556339
0.08197616703635743
0.08201229480601017
0.08197616703636003
0.08904999112507545
0.0890842336712505
0.08904999112508136
0.08873020543244882
0.08876478065039826
0.08873020543245318
0.089049991125711
0.08908423367188437
0.0890499911257138
0.09632740629044884
0.09635976031295773
0.09632740629045494
0.09601627046153353
0.09604892483404265
0.09601627046153809
0.09632740629110795
0.09635976031361515
0.09632740629111096
0.10379710700034875
0.1038275698003388
0.10379710700035509
0.1034946173455359
0.10352535087260889
0.10349461734554068
0.10379710700103076
0.10382756980101898
0.10379710700103399
0.11144778701294072
0.11147635636813634
0.11144778701294718
0.11115393538711041
0.11118274806875866
0.11115393538711549
0.11144778701364459
0.11147635636883872
0.11144778701364814
0.11926813953408355
0.11929481360313979
0.11926813953409009
0.11898291388892451
0.11900980572516605
0.11898291388892972
0.11926813953477884
0.11929481360383355
0.11926813953478266
0.12724685733830984
0.12727163458671584
0.12724685733831664
0.12697024215368669
0.12699521314448706
0.12697024215369218
0.127246857338968
0.1272716345873726
0.1272468573389721
0.13537263286271706
0.13539551200471336
0.13537263286272389
0.135104609484188
0.13512765962916173
0.13510460948419353
0.13537263286333523
0.13539551200532993
0.13537263286333948
0.14363415828066467
0.14365513823289805
0.14363415828067175
0.14337470518320056
0.14339583448056945
0.14337470518320639
0.1436341582812403
0.14365513823347237
0.14363415828124484
0.15202012555974453
0.15203920540310048
0.1520201255597517
0.15176921855251074
0.1517884269970109
0.1517692185525168
0.15202012556027508
0.15203920540362972
0.15202012556027994
0.16051922650634137
0.16053640545567507
0.16051922650634873
0.16027683888836786
0.16029412647050953
0.16027683888837407
0.16051922650682485
0.16053640545615727
0.16051922650682998
0.16912015279503045
0.16913543018728588
0.1691201527950378
0.16888625546827926
0.1689016222018178
0.16888625546828565
0.16912015279546497
0.16913543018771962
0.16912015279547046
0.17781159599134758
0.17782497137657396
0.17781159599135504
0.17758615751298287
0.1775996035754463
0.1775861575129893
0.1778115959917318
0.17782497137695713
0.1778115959917372
0.18658224756726235
0.1865937211098319
0.1865822475672698
0.18636523416401818
0.18637676056780106
0.18636523416402487
0.18658224756759442
0.186593721110163
0.1865822475676
0.19542079933775405
0.1954303736473676
0.1954207993377613
0.19521217449838152
0.19522178478756555
0.19521217449838807
0.19542079933803244
0.19543037364764498
0.1954207993380382
0.2043159439528371
0.2043236278699697
0.20431594395284447
0.2041156719837463
0.20412337874707315
0.2041156719837528
0.204315943953061
0.20432362787019287
0.20431594395306668
0.21325638670198072
0.2132622103486987
0.21325638670198838
0.21306444698903867
0.2130702847687501
0.21306444698904545
0.2132563867021493