# vtk DataFile Version 2.0
mesh vtk view
ASCII
DATASET UNSTRUCTURED_GRID
POINTS 1025 double
0.0 0.0 0.0
793.1784001109891 -91.22813105973698 -0.0021621974271445903
806.8215998890256 -11.228131059737038 0.0021621976313073578
0.0 80.0 0.0
0.0 0.0 80.0
793.1784001109745 -91.22813105974242 80.00216219762605
806.8215998890113 -11.22813105974248 79.99783780257818
0.0 80.0 80.0
19.686234202623528 -0.1219424756558745 -0.17970671338035668
39.37285740976614 -0.3365263751811457 -0.2081638504586681
59.060424291343764 -0.7357983398632837 -0.2145033185799479
78.7496003190948 -1.297526035897877 -0.2100699677087859
98.44523450311148 -2.0154372367453246 -0.20406626617517323
118.14878469997845 -2.883822468123808 -0.19803037674406898
137.86080798126108 -3.8983214594706026 -0.19212502360527295
157.58141952169993 -5.054633227091841 -0.18628161457389097
177.31063522337445 -6.3484763899441905 -0.18045697934894092
197.04845144391513 -7.7755579319811625 -0.17463603459168925
216.79486527502524 -9.331581302602745 -0.16881524579447788
236.54987556504062 -11.0122486252451 -0.1629942096429906
256.3134820173203 -12.813261814520198 -0.15717303917815223
276.0856845862401 -14.730322774942236 -0.1513518248527806
295.86648327585533 -16.759133429169356 -0.14553060089721395
315.65587809208705 -18.8953957087029 -0.13970937608259082
335.4538690374767 -21.134811547949486 -0.13388815169164545
355.26045611274225 -23.473082881924686 -0.12806692758213145
375.07563931801155 -25.905911645693664 -0.12224570357267046
394.8994186532846 -28.428999774291267 -0.11642447958726261
414.73179411854983 -31.03804920273346 -0.11060325560468824
434.57276571380163 -33.728761866029664 -0.10478203162104859
454.42233343903763 -36.496839699187724 -0.09896080763602022
474.28049729425504 -39.33798463721506 -0.09313958365026008
494.14725727944625 -42.24789861511654 -0.08731835967041168
514.0226133946727 -45.22228356789867 -0.08149713572938223
533.9065656399381 -48.25684143053003 -0.075675911935667
553.7991140154006 -51.347274137939806 -0.06985468851914796
573.7002585221697 -54.48928362517274 -0.06403346552102336
593.6099991638137 -57.67857182828449 -0.058212240566034246
613.5283359476601 -60.91084068726833 -0.0523909999418723
633.4552688725621 -64.18179215487943 -0.046569694912761674
653.3907978545676 -67.48712819761715 -0.0407482085065034
673.3349224201226 -70.82255076460898 -0.03492646841326179
693.2876410376416 -74.18376100483417 -0.029105384919052023
713.248949173158 -77.56645635726332 -0.023292641650531094
733.2188375669895 -80.96630649348558 -0.017520302383573244
753.1972483644558 -84.37893362815723 -0.011935722614596175
773.183942100339 -87.79992944274588 -0.006542883070644535
796.5957663866953 -71.22497128606047 -4.058528141896804e-05
799.9999999999969 -51.222646626302264 1.0211998155048251e-10
803.4042336133078 -31.224971286053744 4.058548561479899e-05
786.8160578997084 -7.799929442788937 0.006542883267566138
766.8027516356248 -4.378933628243118 0.011935722804204227
746.7811624331245 -0.9663064936139989 0.017520302565895277
726.7510508269892 2.433543642566221 0.023292641825543223
706.7123589625393 5.816238994953807 0.029105385086688515
686.6650775800922 9.177449235138326 0.034926468573624324
666.6092021456811 12.512871802090586 0.04074820865965791
646.544731127721 15.818207844789725 0.046569695058605635
626.4716640526575 19.089159312363698 0.05239100008056383
606.3900008365385 22.32142817131173 0.05821224069752522
586.2997414782174 25.510716374389332 0.06403346564539245
566.2008859850214 28.652725861589914 0.06985468863645028
546.0934343605192 31.74315856896918 0.07567591204596284
525.9773866058201 34.77771643157232 0.08149713583282195
505.8527427210813 37.752101384347945 0.08731835976711043
485.7195027063063 40.66201536226621 0.09313958374035411
465.5776665615575 43.50316030031092 0.09896080771967385
445.4272342868273 46.27123813348691 0.10478203169840328
425.26820588211257 48.96195079680152 0.11060325567589419
405.10058134741143 51.571000225262544 0.11642447965248884
384.924360682718 54.094088353879506 0.12224570363211565
364.73954388802093 56.526917117668305 0.12806692763599536
344.54613096331985 58.8651884516637 0.13388815174011215
324.34412190874286 61.10460429093092 0.13970937612589318
304.13351672500784 63.24086657048548 0.14553060093556586
283.9143154145799 65.2696772247414 0.1513518248864247
263.6865179833892 67.18673818519791 0.1571730392073712
243.45012443560415 68.98775137451017 0.16299420966806402
223.20513472557894 70.66841869718958 0.16881524581570065
202.95154855664813 72.22444206784573 0.1746360346093495
182.68936477714763 73.65152360991459 0.18045697936331778
162.41858047878054 74.94536677279599 0.18628161458529469
142.13919201917773 76.1016785404433 0.19212502361402534
121.8512153004185 77.11617753181302 0.1980303767504943
101.55476549724051 77.98456276321102 0.20406626617961787
81.25039968118257 78.7024739640736 0.21006996771162506
60.939575708855955 79.26420166012021 0.21450331858165558
40.627142590364485 79.6634736248114 0.20816385045979494
20.313765797444283 79.87805752434214 0.17970671338151883
0.0 60.0 0.0
0.0 40.0 0.0
0.0 20.0 0.0
19.68623420262278 -0.1219424756564349 80.17970671338051
39.372857409764656 -0.33652637518193274 80.20816385045917
59.06042429134154 -0.7357983398642405 80.21450331858125
78.74960031909184 -1.2975260358989755 80.21006996771126
98.44523450310781 -2.015437236746562 80.2040662661792
118.14878469997409 -2.883822468125182 80.19803037674998
137.86080798125604 -3.89832145947212 80.19212502361343
157.58141952169424 -5.054633227093504 80.18628161458462
177.31063522336814 -6.348476389945987 80.18045697936255
197.04845144390822 -7.775557931983089 80.1746360346085
216.79486527501777 -9.331581302604818 80.16881524581477
236.54987556503258 -11.012248625247295 80.16299420966706
256.31348201731174 -12.81326181452253 80.15717303920628
276.085684586231 -14.730322774944693 80.15135182488523
295.8664832758457 -16.75913342917196 80.14553060093422
315.655878092077 -18.895395708705635 80.1397093761244
335.4538690374662 -21.13481154795241 80.13388815173846
355.26045611273133 -23.47308288192773 80.1280669276342
375.07563931800024 -25.905911645696854 80.12224570363018
394.8994186532729 -28.4289997742946 80.11642447965042
414.7317941185378 -31.03804920273688 80.1106032556737
434.57276571378924 -33.72876186603322 80.10478203169606
454.42233343902495 -36.496839699191405 80.09896080771722
474.28049729424214 -39.337984637218895 80.09313958373777
494.14725727943306 -42.2478986151205 80.08731835976432
514.0226133946593 -45.22228356790278 80.08149713582985
533.9065656399245 -48.256841430534315 80.07567591204274
553.7991140153869 -51.347274137944225 80.069854688633
573.7002585221558 -54.4892836251772 80.06403346564174
593.6099991637996 -57.67857182828913 80.05821224069365
613.5283359476459 -60.910840687273115 80.05239100007647
633.4552688725479 -64.18179215488432 80.04656969505437
653.3907978545534 -67.48712819762208 80.04074820865524
673.3349224201082 -70.82255076461402 80.03492646856905
693.2876410376273 -74.18376100483918 80.02910538508203
713.2489491731435 -77.56645635726828 80.02329264182072
733.2188375669749 -80.96630649349076 80.0175203025609
753.1972483644413 -84.37893362816249 80.01193572279898
773.1839421003244 -87.79992944275124 80.00654288326233
796.5957663866808 -71.22497128606587 80.00004058548298
799.9999999999825 -51.22264662630771 80.00000000010209
803.4042336132934 -31.224971286059187 79.99995941472122
786.8160578996941 -7.799929442794351 79.99345711693476
766.8027516356103 -4.378933628248475 79.98806427739086
746.78116243311 -0.9663064936192711 79.98247969762187
726.7510508269747 2.433543642561105 79.97670735835483
706.712358962525 5.8162389949488045 79.97089461508635
686.6650775800778 9.177449235133338 79.96507353159217
666.6092021456668 12.512871802085684 79.95925179149886
646.5447311277068 15.81820784478505 79.95343030509257
626.4716640526434 19.089159312359058 79.94760900006344
606.3900008365245 22.32142817130721 79.94178775943924
586.2997414782035 25.51071637438499 79.93596653448421
566.2008859850076 28.652725861585672 79.93014531148603
546.0934343605056 31.743158568965185 79.9243240880694
525.9773866058067 34.77771643156849 79.91850286427558
505.8527427210681 37.75210138434432 79.91268164033444
485.7195027062933 40.66201536226275 79.90686041635443
465.57766656154485 43.50316030030764 79.90103919236851
445.4272342868149 46.27123813348376 79.8952179683833
425.2682058821005 48.96195079679852 79.88939674439953
405.1005813473997 51.57100022525972 79.8835755204168
384.92436068270666 54.09408835387685 79.87775429643122
364.73954388801 56.52691711766581 79.87193307242158
344.54613096330934 58.86518845166141 79.86611184831192
324.3441219087328 61.104604290928805 79.86029062392079
304.13351672499823 63.240866570483526 79.854469399106
283.9143154145708 65.26967722473964 79.84864817515026
263.6865179833806 67.18673818519629 79.8428269608247
243.4501244355961 68.9877513745087 79.83700579035967
223.20513472557147 70.66841869718829 79.83118475420795
202.95154855664123 72.22444206784459 79.82536396541052
182.68936477714132 73.65152360991362 79.81954302065304
162.41858047877486 74.9453667727952 79.81371838542788
142.1391920191727 76.10167854044268 79.80787497639628
121.85121530041414 77.11617753181257 79.80196962325725
101.55476549723684 77.98456276321072 79.79593373382592
81.25039968117963 78.70247396407349 79.78993003229206
60.93957570885373 79.26420166012026 79.78549668142055
40.627142590363 79.6634736248116 79.79183614954131
20.313765797443537 79.87805752434242 79.8202932866189
0.0 60.0 80.0
0.0 40.0 80.0
0.0 20.0 80.0
0.0 0.0 20.0
0.0 0.0 40.0
0.0 0.0 60.0
793.1758242509767 -91.23023644473918 19.99861109586567
793.1752506405413 -91.23109079824289 40.00000000009942
793.1758242509694 -91.23023644474198 60.00138890433323
806.8241757490307 -11.230236444739234 20.001388904338537
806.8247493594588 -11.231090798242889 40.00000000010478
806.8241757490235 -11.23023644474199 59.998611095870984
0.0 80.0 20.0
0.0 80.0 40.0
0.0 80.0 60.0
[...]
POINT_DATA 1025
SCALARS CellEntityIds float 1
LOOKUP_TABLE default
0.0
0.24074425986738604
0.24074425986738907
0.0
0.0
0.24074425986740317
0.24074425986740053
0.0
0.001004192891813903
0.0019514360400759035
0.0031908514725120895
0.004774124164724091
0.006720027353169445
0.009033120859295677
0.011712733297831525
0.014754113334865699
0.018149960145209282
0.021891421461382028
0.02596873743662169
0.030371607228835657
0.03508939873915365
0.04011127023476055
0.04542624329606068
0.051023247976365156
0.056891151593606346
0.06301877756074192
0.06939491798467823
0.07600834227096114
0.08284780311215043
0.08990204072813242
0.0971597859169771
0.10460976228269571
0.11224068788449405
0.12004127647358906
0.1280002384319222
0.13610628149301462
0.14434811130194042
0.152714431856604
0.16119394586368405
0.16977535504461094
0.1784473603832527
0.1871986623018334
0.19601795890464727
0.20489393887711976
0.2138152187538368
0.22277030038753623
0.2317476403859368
0.2402328076846061
0.24005959638484575
0.2402328076846063
0.23174764038605278
0.22277030038776477
0.21381521875417708
0.2048939388775705
0.1960179589052072
0.1871986623025002
0.17844736038402348
0.16977535504548305
0.1611939458646537
0.1527144318576677
0.1443481113030938
0.136106281494253
0.12800023843324063
0.12004127647498156
0.11224068788590369
0.1046097622840614
0.09715978591829728
0.08990204072940562
0.08284780311337543
0.0760083422721368
0.06939491798580319
0.06301877756181495
0.05689115159462647
0.051023247977331224
0.04542624329697172
0.04011127023559618
0.03508939873989906
0.030371607229483844
0.02596873743717294
0.021891421461842926
0.018149960145586903
0.014754113335167525
0.011712733298065398
0.009033120859469897
0.0067200273532929235
0.004774124164808187
0.0031908514725647024
0.0019514360401042515
0.0010041928918256926
0.0
0.0
0.0
0.001004192891816179
0.0019514360400805235
0.0031908514725187513
0.0047741241647322715
0.006720027353178736
0.009033120859305802
0.011712733297842311
0.01475411333487703
0.01814996014522104
0.02189142146139414
0.02596873743663416
0.03037160722884839
0.03508939873916666
0.040111270234773795
0.0454262432960742
0.051023247976378895
0.056891151593620445
0.06301877756075619
0.06939491798469274
0.07600834227097587
0.08284780311216525
0.08990204072814742
0.0971597859169923
0.10460976228271114
0.11224068788450964
0.12004127647360487
0.1280002384319383
0.13610628149303095
0.14434811130195666
0.15271443185662056
0.1611939458637008
0.16977535504462785
0.17844736038326955
0.18719866230185037
0.19601795890466397
0.20489393887713617
0.21381521875385368
0.22277030038755313
0.2317476403859538
0.2402328076846217
0.24005959638486007
0.24023280768461922
0.23174764038606402
0.2227703003877757
0.21381521875418769
0.20489393887758045
0.19601795890521673
0.18719866230250948
0.17844736038403244
0.16977535504549118
0.16119394586466157
0.15271443185767508
0.14434811130310052
0.13610628149425927
0.1280002384332461
0.12004127647498643
0.11224068788590782
0.10460976228406492
0.09715978591830016
0.08990204072940798
0.08284780311337722
0.07600834227213793
0.06939491798580372
0.06301877756181487
0.056891151594625704
0.05102324797732984
0.045426243296969745
0.040111270235593556
0.03508939873989591
0.030371607229480138
0.025968737437168685
0.02189142146183818
0.018149960145581633
0.014754113335161814
0.011712733298059313
0.009033120859463539
0.006720027353286474
0.004774124164801921
0.00319085147255906
0.0019514360400998993
0.0010041928918233093
0.0
0.0
0.0
0.0
0.0
0.0
0.24075029043204435
0.24075264504170085
0.2407502904320531
0.240750290432046
0.24075264504170088
0.2407502904320518
0.0
0.0
0.0
0.0004661657966493285
6.808433831272397e-06
0.00046616579665365965
0.0011017529047283568
0.0006105713702751013
0.0011017529047410936
0.0021424489746915227
0.0016692950741433352
0.002142448974716591
0.0036179754543687226
0.0031523231060390992
0.0036179754544098048
0.0055063299306217705
0.00504725525407859
0.0055063299306828285
0.0077917928842678895
0.007339360313829196
0.007791792884354567
0.010461600765407666
0.010016356182338289
0.010461600765524406
0.013504293357733496
0.013066628011189862
0.01350429335788442
0.016908626609062866
0.016478830573736794
0.01690862660925187
0.020663372520631766
0.02024165641076346
0.020663372520862613
0.02475727925116046
0.02434380036365136
0.02475727925143664
0.029179076988252842
0.028773953872471725
0.029179076988577697
0.033917484377085826
0.03352080683565313
0.03391748437745941
0.03896121268092137
0.03857304864949431
0.03896121268134015
0.044298968115086754
0.04391936861177873
0.04429896811554329
0.0499194532811404
0.04954845601423955
0.049919453281624476
0.05581136811943776
0.0554490001547051
0.05581136811994883
0.061963410577864426
0.06160969033441279
0.06196341057840205
0.06836427709403675
0.06801921585575012
0.06836427709460025
0.0750026629486703
0.07466626602136356
0.07500266294925924
0.08186726252791161
0.08153953013392516
0.08186726252852518
0.08894676952054495
0.0886276974960974
0.08894676952118268
0.09622987706810258
0.09591945741053418
0.09622987706876376
0.10370527788053452
0.10340349917988298
0.10370527788121853
0.11136166432640544
0.11106851210678119
0.11136166432711139
0.11918772850407025
0.11890318549385703
0.11918772850476748
0.1271721622984645
0.12689620864379403
0.12717216229912448
0.1353036574271692
0.13503627085969797
0.13530365742778902
0.14357090547878382
0.14331206144634237
0.14357090547936102
0.15196259794624467
0.15171226971311944
0.1519625979467767
0.16046742625638558
0.16022558497487946
0.1604674262568704
0.16907408177883607
0.16884069652592332
0.16907408177927213
0.17777125574763175
0.1775462934406367
0.17777125574801705
0.18654763869893118
0.18633106381752612
0.18654763869926438
0.1953919187337899
0.19518369203557243
0.19539191873406925
0.20429277369387047
0.20409285640895727
0.20429277369409538
0.21323886175827303
0.2130472418706493
0.21323886175844223
0.22221877056423409
0.22203568128642856
0.22221877056434752
0.23122117239270437
0.23104689908634124
0.2312211723927616
0.000907138540388485
0.0009223120334594775
0.0009071385403896857
0.001971419598647954
0.001979255009986332
0.001971419598650335
0.003282657875249633
0.0033126709005096167
0.0032826578752529673
0.0049045940231650575
0.004946432813073096
0.00490459402316912
0.006869139591558921
0.00691745923199804
0.006869139591563539
0.009191529245536666
0.009242950258076761
0.00919152924554171
0.011875405149370681
0.011928228091400803
0.011875405149376054
0.014918012099910795
0.014971241935413748
0.014918012099916436
0.01831309997798863
0.018366101176146815
0.018313099977994497
0.02205245624875414
0.022104795537025677
0.02205245624876021
0.026126732667677028
0.026178106041739636
0.02612673266768322
0.030525900995849398
0.030576090692847013
0.03052590099585578
0.03523951302167955
0.03528836029879559
0.03523951302168607
0.04025685343165838
0.040304240594831786
0.04025685343166502
0.045567032396304996
0.045612870784692096
0.04556703239631174
0.05115904321527464
0.05120326504910002
0.05115904321528151
0.05702179914654387
0.05706435190989594
0.05702179914655089
0.06314415750373722
0.06318500000884314
0.06314415750374436
0.06951493577224933
0.06955403535667956
0.06951493577225652
0.07612292260658989
0.0761602531064765
0.07612292260659723
0.08295688547471365
0.08299242573822302
0.082956885474721
0.09000557606276949
0.09003930884547624
0.09000557606277697
0.09725773415683822
0.09728964529091268
0.09725773415684587
0.10470209047163637
0.10473216823394695
0.10470209047164408
0.11232736873990234
0.11235560336639998
0.11232736873991021
0.12012228727535451
0.1201486705842672
0.12012228727536242
0.12807556015574686
0.12810008525257735
0.12807556015575497
0.13617589812868022
0.1361985591732903
0.13617589812868836
0.14441200931279383
0.1444328013338093
0.144412009312802
0.15277259974648033
0.1527915184915005
0.15277259974648866
0.16124637382163068
0.16126341563234187
0.16124637382163903
0.16982203462951231
0.16983719633764552
0.16982203462952056
0.17848828421920723
0.17850156306799617
0.17848828421921573
0.18723382380441692
0.1872452176296525
0.18723382380442516
0.19604735334682863
0.19605686161932012
0.19604735334683687
0.204917570858196
0.20492520016172625
0.20491757085820436
0.21383315239223666
0.2138389276891899
0.21383315239224512
0.22278278890601255
0.22278678990819856
0.22278278890602102
0.2317554065218708
0.23175810263210778
0.23175540652187937
0.2402384126962702
0.2402413339426246
0.24023841269627833
0.24006470886177983
0.24006804123148362
0.24006470886178718
0.24023841269626983
0.24024133394262356
0.24023841269627655
0.23175540652198534
0.23175810263222069
0.23175540652199092
0.22278278890623932
0.22278678990842396
0.22278278890624492
0.21383315239257528
0.2138389276895268
0.21383315239258047
0.20491757085864507
0.20492520016217375
0.20491757085864998
0.1960473533473863
0.19605686161987596
0.19604735334739115
0.1872338238050813
0.18724521763031501
0.18723382380508585
0.17848828421997578
0.17850156306876264
0.17848828421998025
0.16982203463038156
0.16983719633851274
0.16982203463038595
0.16124637382259752
0.16126341563330637
0.16124637382260157
0.15277259974754098
0.15279151849255865
0.1527725997475447
0.14441200931394393
0.14443280133495684
0.14441200931394724
0.1361758981299153
0.13619855917452242
0.13617589812991832
0.12807556015706165
0.12810008525388916
0.12807556015706442
0.12012228727674343
0.12014867058565296
0.12012228727674577
0.11232736874130811
0.11235560336780258
0.11232736874131019
0.1047020904729981
0.10473216823530529
0.10470209047299983
0.09725773415815436
0.09728964529222539
0.09725773415815586
0.09000557606403857
0.09003930884674191
0.09000557606403978
0.08295688547593441
0.0829924257394403
0.08295688547593533
0.07612292260776114
0.07616025310764421
0.0761229226077617
0.06951493577336983
0.06955403535779632
0.06951493577337017
0.0631441575048058
0.06318500000990786
0.06314415750480581
0.05702179914755945
0.057064351910907564
0.057021799147559116
0.05115904321623609
0.05120326505005743
0.051159043216235434
0.04556703239721138
0.04561287078559441
0.04556703239721043
0.04025685343248933
0.04030424059565853
0.04025685343248808
0.035239513022420246
0.03528836029953202
0.03523951302241871
0.03052590099649293
0.030576090693486255
0.030525900996491145
0.026126732668223653
0.026178106042282014
0.026126732668221624
0.0220524562492105
0.022104795537477774
0.022052456249208218
0.018313099978361804
0.018366101176515742
0.018313099978359296
0.014918012100208315
0.014971241935707088
0.014918012100205585
0.011875405149600476
0.011928228091626532
0.011875405149597581
0.00919152924570712
0.009242950258243331
0.009191529245704112
0.006869139591679083
0.0069174592321146295
0.006869139591676059
0.00490459402324659
0.0049464328131515346
0.004904594023243685
0.003282657875300819
0.0033126709005583733
0.0032826578752982428
0.0019714195986760305
0.001979255010012592
0.0019714195986740646
0.0009071385403997302
0.0009223120334696138
0.0009071385403987248
0.0
0.0
0.0
0.0
0.0
0.0
0.0
0.0
0.0
0.0004661657966513645
6.8084338316744435e-06
0.000466165796651392
0.0011017529047325496
0.0006105713702758861
0.0011017529047374986
0.002142448974696875
0.001669295074144522
0.002142448974712871
0.0036179754543747534
0.003152323106040694
0.0036179754544063795
0.005506329930628304
0.005047255254080587
0.005506329930679825
0.007791792884274847
0.007339360313831605
0.00779179288435203
0.01046160076541501
0.010016356182341115
0.010461600765522362
0.013504293357741223
0.0130666280111931
0.01350429335788288
0.016908626609070908
0.016478830573740423
0.016908626609250826
0.020663372520640128
0.020241656410767497
0.020663372520862085
0.024757279251169134
0.0243438003636558
0.0247572792514366
0.029179076988261835
0.02877395387247654
0.02917907698857815
0.03391748437709509
0.03352080683565833
0.03391748437746034
0.03896121268093091
0.03857304864949987
0.03896121268134157
0.04429896811509658
0.04391936861178471
0.04429896811554523
0.04991945328115062
0.049548456014245935
0.04991945328162697
0.05581136811944832
0.05544900015471195
0.05581136811995186
0.06196341057787527
0.06160969033442004
0.06196341057840561
0.06836427709404794
0.06801921585575785
0.06836427709460435
0.07500266294868176
0.0746662660213716
0.07500266294926382
0.08186726252792333
0.08153953013393361
0.08186726252853024
0.08894676952055688
0.0886276974961063
0.08894676952118823
0.0962298770681148
0.09591945741054325
0.09622987706876973
0.10370527788054712
0.10340349917989257
0.10370527788122501
0.11136166432641831
0.11106851210679118
0.11136166432711844
0.11918772850408332
0.11890318549386755
0.11918772850477515
0.127172162298478
0.12689620864380488
0.12717216229913267
0.13530365742718303
0.13503627085970926
0.13530365742779785
0.1435709054787978
0.14331206144635397
0.14357090547937018
0.15196259794625902
0.1517122697131316
0.1519625979467865
0.16046742625640015
0.16022558497489198
0.16046742625688062
0.16907408177885094
0.1688406965259361
0.16907408177928257
0.17777125574764674
0.1775462934406497
0.1777712557480281
0.1865476386989462
0.18633106381753933
0.18654763869927554
0.1953919187338047
0.1951836920355855
0.19539191873408057
0.20429277369388532
0.20409285640897062
0.20429277369410703
0.2132388617582881
0.21304724187066296
0.21323886175845447
0.2222187705642494
0.22203568128644247
0.22221877056436
0.23122117239272005
0.23104689908635528
0.23122117239277418
0.0004119303796504577
0.00041613204741697816
0.00041193037965140593
0.00014730046659775694
0.0001770063136602723
0.00014730046659795022
0.0004119303796543377
0.0004161320474201424
0.0004119303796534981
0.0011879594769108716
0.0012172641248098669
0.0011879594769128464
0.0007955393679379458
0.0008525021826885743
0.000795539367938338
0.0011879594769225654
0.0012172641248201542
0.0011879594769210768
0.0022971854266697943
0.002346639789314114
0.0022971854266723574
0.001871620584534372
0.0019368373910173238
0.001871620584534967
0.0022971854266931025
0.0023466397893355372
0.0022971854266914706
0.0037957806216112103
0.0038542098130837656
0.0037957806216141416
0.003355752004613654
0.0034233827518668535
0.0033557520046144525
0.003795780621650099
0.003854209813120525
0.003795780621648546
0.0056903678557620185
0.005751277369487504
0.005690367855765223
0.0052464881348395775
0.005313458367348703
0.00524648813484058
0.0056903678558206895
0.0057512773695439145
0.005690367855819299
0.007975867791849183
0.008036926415574287
0.007975867791852626
0.007533081126596553
0.007598381029953459
0.00753308112659776
0.007975867791933395
0.008036926415656183
0.007975867791932208
0.01064326674242737
0.010703530387881207
0.010643266742431013
0.010204337874092128
0.010267744903934495
0.010204337874093534
0.010643266742541605
0.01070353038799311
0.010643266742540652
0.013682354640399703
0.013741413869740206
0.013682354640403524
0.013248880766919864
0.013310357176761612
0.013248880766921475
0.013682354640548088
0.013741413869886266
0.013682354640547366
0.017082399902198505
0.017140031769855395
0.017082399902202516
0.016655375457550567
0.016714924616938374
0.01665537545755239
0.017082399902384988
0.017140031770039546
0.017082399902384516
0.02083242776184676
0.020888494310679795
0.020832427761850937
0.020412503221176593
0.020470129174019278
0.020412503221178605
0.02083242776207508
0.020888494310905854
0.020832427762074848
0.02492133313549299
0.024975742443935595
0.02492133313549731
0.024508951854309832
0.02456465640487381
0.024508951854312046
0.02492133313576667
0.02497574244420701
0.024921333135766673
0.029337937076977978
0.02939062590270201
0.029337937076982443
0.028933410551167327
0.02898719418673189
0.02893341055116974
0.0293379370773003
0.029390625903022077
0.029337937077300553
0.03407101655720784
0.034121940354025396
0.034071016557212494
0.033674568701918296
0.0337264315082023
0.03367456870192088
0.03407101655757892
0.03412194035439428
0.0340710165575794
0.03910932122857285
0.039158447959356635
0.03910932122857764
0.038721115659774444
0.03877105763436848
0.03872111565977719
0.0391093212289892
0.03915844795977076
0.039109321228989906
0.044441583210902434
0.04448888937118752
0.04444158321090737
0.044061740744603305
0.04410976187909883
0.044061740744606274
0.044441583211356515
0.044488889371639535
0.04444158321135749
0.05005652301323859
0.05010199104068764
0.05005652301324368
0.049685133263001426
0.04973123355344756
0.049685133263004645
0.0500565230137203
0.05010199104116724
0.05005652301372153
0.055942853236651734
0.05598646979251275
0.055942853236656986
0.05557998251805074
0.0556241619632688
0.05557998251805418
0.05594285323716045
0.05598646979301948
0.05594285323716197
0.062089280962066506
0.06213103576782883
0.06208928096207194
0.061734977812262344
0.06177723641202077
0.061734977812265994
0.06208928096260185
0.062131035768362194
0.06208928096260366
0.0684845093335613
0.06852439436673209
0.06848450933356687
0.06813880844818265
0.06817914620247222
0.06813880844818646
0.06848450933412253
0.06852439436729141
0.06848450933412462
0.07511723863456968
0.07515524756167416
0.07511723863457542
0.07478016372842436
0.07481858063726071
0.07478016372842844
0.07511723863515635
0.07515524756225894
0.07511723863515866
0.08197616703574609
0.08201229480540054
0.08197616703575189
0.08164773295562965
0.0816842290190211
0.0816477329556339
0.08197616703635743
0.08201229480601017
0.08197616703636003
0.08904999112507545
0.0890842336712505
0.08904999112508136
0.08873020543244882
0.08876478065039826
0.08873020543245318
0.089049991125711
0.08908423367188437
0.0890499911257138
0.09632740629044884
0.09635976031295773
0.09632740629045494
0.09601627046153353
0.09604892483404265
0.09601627046153809
0.09632740629110795
0.09635976031361515
0.09632740629111096
0.10379710700034875
0.1038275698003388
0.10379710700035509
0.1034946173455359
0.10352535087260889
0.10349461734554068
0.10379710700103076
0.10382756980101898
0.10379710700103399
0.11144778701294072
0.11147635636813634
0.11144778701294718
0.11115393538711041
0.11118274806875866
0.11115393538711549
0.11144778701364459
0.11147635636883872
0.11144778701364814
0.11926813953408355
0.11929481360313979
0.11926813953409009
0.11898291388892451
0.11900980572516605
0.11898291388892972
0.11926813953477884
0.11929481360383355
0.11926813953478266
0.12724685733830984
0.12727163458671584
0.12724685733831664
0.12697024215368669
0.12699521314448706
0.12697024215369218
0.127246857338968
0.1272716345873726
0.1272468573389721
0.13537263286271706
0.13539551200471336
0.13537263286272389
0.135104609484188
0.13512765962916173
0.13510460948419353
0.13537263286333523
0.13539551200532993
0.13537263286333948
0.14363415828066467
0.14365513823289805
0.14363415828067175
0.14337470518320056
0.14339583448056945
0.14337470518320639
0.1436341582812403
0.14365513823347237
0.14363415828124484
0.15202012555974453
0.15203920540310048
0.1520201255597517
0.15176921855251074
0.1517884269970109
0.1517692185525168
0.15202012556027508
0.15203920540362972
0.15202012556027994
0.16051922650634137
0.16053640545567507
0.16051922650634873
0.16027683888836786
0.16029412647050953
0.16027683888837407
0.16051922650682485
0.16053640545615727
0.16051922650682998
0.16912015279503045
0.16913543018728588
0.1691201527950378
0.16888625546827926
0.1689016222018178
0.16888625546828565
0.16912015279546497
0.16913543018771962
0.16912015279547046
0.17781159599134758
0.17782497137657396
0.17781159599135504
0.17758615751298287
0.1775996035754463
0.1775861575129893
0.1778115959917318
0.17782497137695713
0.1778115959917372
0.18658224756726235
0.1865937211098319
0.1865822475672698
0.18636523416401818
0.18637676056780106
0.18636523416402487
0.18658224756759442
0.186593721110163
0.1865822475676
0.19542079933775405
0.1954303736473676
0.1954207993377613
0.19521217449838152
0.19522178478756555
0.19521217449838807
0.19542079933803244
0.19543037364764498
0.1954207993380382
0.2043159439528371
0.2043236278699697
0.20431594395284447
0.2041156719837463
0.20412337874707315
0.2041156719837528
0.204315943953061
0.20432362787019287
0.20431594395306668
0.21325638670198072
0.2132622103486987
0.21325638670198838
0.21306444698903867
0.2130702847687501
0.21306444698904545
0.2132563867021493