# vtk DataFile Version 2.0
mesh vtk view
ASCII
DATASET UNSTRUCTURED_GRID
POINTS 1025 double
0.0 0.0 0.0
795.4522667406594 -60.81875403982459 -0.0014414649514297253
804.5477332593504 19.181245960175374 0.0014414650875382367
0.0 80.0 0.0
0.0 0.0 80.0
795.4522667406496 -60.818754039828214 80.00144146508404
804.5477332593408 19.181245960171744 79.99855853505211
0.0 80.0 80.0
19.790822801722914 -0.0812949837705829 -0.11980447558690432
39.58190493979011 -0.22435091678743022 -0.13877590030577858
59.37361619414948 -0.49053222657552187 -0.14300221238663177
79.16640021262741 -0.8650173572652504 -0.14004664513919043
98.96348966861486 -1.3436248244968816 -0.13604417745011532
118.7658564664925 -1.9225483120825366 -0.13202025116271252
138.573871987313 -2.5988809729803988 -0.12808334907018182
158.38761301423762 -3.3697554847278903 -0.12418774304926052
178.20709014865275 -4.232317593296123 -0.1203046528992938
198.03230096231192 -5.183705287987436 -0.11642402306112604
217.86324351635074 -6.221054201735156 -0.11254349719631845
237.69991704299306 -7.341499083496725 -0.10866280642866027
257.5423213444864 -8.542174543013456 -0.10478202611876804
277.39045639042206 -9.820215183294813 -0.10090121656852029
297.2443221834879 -11.172755619446225 -0.09702040059814253
317.1039187276315 -12.596930472468586 -0.09313958405506045
336.96924602454703 -14.089874365299641 -0.0892587677944302
356.8403040747132 -15.648721921283107 -0.08537795172142086
376.7170928782151 -17.270607763795756 -0.08149713571511355
396.5996124350529 -18.952666516194157 -0.07761631972484165
416.4878627452188 -20.692032801822286 -0.07373550373645874
436.3818438087091 -22.485841244019753 -0.06985468774736564
456.2815556255222 -24.331226466125123 -0.06597387175734674
476.18699819565626 -26.225323091476678 -0.06209305576683998
496.09817151910613 -28.165265743410995 -0.058212239780274386
516.015075595938 -30.148189045265745 -0.054331423819588096
535.9377104261514 -32.17122762035332 -0.05045060795711128
555.8660760098296 -34.23151609195983 -0.046569792346098586
575.8001723477121 -36.326189083448455 -0.04268897701401553
595.7399994421778 -38.45238121885628 -0.03880816037735612
615.685557298112 -40.607227124845515 -0.034927333294581496
635.6368459147498 -42.78786143658624 -0.031046463275174414
655.5938652361232 -44.99141879841138 -0.027165472337668906
675.5566149465296 -47.215033843072604 -0.02328431227550783
695.5250940249122 -49.45584066988939 -0.01940358994603466
715.4992994486262 -51.710970904842156 -0.015528427767020712
735.4792250445503 -53.97753766232366 -0.011680201589048816
755.4648322428976 -56.25262241877142 -0.007957148409730774
775.4559614001895 -58.533286295163855 -0.004361922047096351
797.7305109244635 -40.81664752405261 -2.7056854279311997e-05
799.999999999998 -20.815097750888384 6.80799877003216e-11
802.2694890755386 -0.816647524045905 2.7056990409865963e-05
784.544038599853 21.466713704807447 0.00436192217837742
764.5351677571779 23.74737758117132 0.007957148536136141
744.5207749555584 26.02246233759073 0.011680201710596838
724.5007005515156 28.2890290950442 0.015528427883695465
704.474905975263 30.544159329969254 0.01940359005779232
684.443385053679 32.784966156758934 0.02328431238241619
664.406134764119 35.00858120139378 0.027165472439771913
644.3631540855263 37.2121385631932 0.031046463372403722
624.314442702198 39.39277287490918 0.034927333387042514
604.2600005581661 41.54761878087453 0.03880816046501677
584.199827652666 43.6738109162596 0.042688977096928246
564.1339239905827 45.76848390772665 0.046569792424300135
544.0622895742953 47.828772379312824 0.05045060803064184
523.9849244045432 49.851810954381584 0.054331423888547906
503.90182848140927 51.834734256232 0.058212239844740214
483.81300180489256 53.774676908177504 0.062093055826902666
463.7184443750601 55.66877353354064 0.06597387181311583
443.61815619190656 57.51415875565797 0.06985468779893544
423.51213725543005 59.307967197867704 0.07373550378392937
403.40038756562933 61.04733348350838 0.0776163197683258
383.2829071225004 62.72939223591969 0.08149713575474368
363.1596959260357 64.35127807844555 0.08537795175733015
343.0307539762349 65.91012563444248 0.08925876782674134
322.8960812731836 67.4030695272873 0.09313958408392868
302.75567781736027 68.82724438032366 0.09702040062371046
282.6095436103831 70.17978481649428 0.10090121659094968
262.4576786562086 71.45782545679862 0.10478202613824734
242.30008295763787 72.65850091634012 0.10866280644537589
222.1367564842404 73.7789457981264 0.11254349721046697
201.96769903823915 74.81629471189716 0.11642402307289955
181.7929098518581 75.76768240660974 0.12030465290887837
161.61238698623265 76.63024451519733 0.12418774305686298
141.42612801311674 77.4011190269622 0.12808334907601673
121.23414353389656 78.07745168787535 0.13202025116699606
101.03651033173051 78.65637517547401 0.13604417745307842
80.83359978764453 79.13498264271573 0.1400466451410832
60.62638380604608 79.50946777341348 0.14300221238777022
40.41809506033773 79.77564908320761 0.1387759003065298
20.209177198343557 79.91870501622809 0.1198044755876791
0.0 60.0 0.0
0.0 40.0 0.0
0.0 20.0 0.0
19.79082280172242 -0.08129498377095651 80.119804475587
39.58190493978912 -0.2243509167879549 80.13877590030611
59.373616194148 -0.49053222657615975 80.1430022123875
79.16640021262545 -0.8650173572659827 80.14004664514084
98.96348966861241 -1.3436248244977065 80.1360441774528
118.7658564664896 -1.9225483120834528 80.13202025116667
138.57387198730964 -2.5988809729814104 80.12808334907562
158.38761301423384 -3.3697554847289988 80.12418774305641
178.20709014864855 -4.23231759329732 80.12030465290836
198.03230096230732 -5.18370528798872 80.11642402307233
217.86324351634573 -6.221054201736538 80.11254349720984
237.6999170429877 -7.341499083498189 80.10866280644471
257.54232134448074 -8.54217454301501 80.10478202613751
277.390456390416 -9.820215183296451 80.10090121659015
297.24432218348153 -11.17275561944796 80.09702040062281
317.1039187276248 -12.596930472470408 80.09313958408293
336.96924602454004 -14.089874365301592 80.08925876782564
356.8403040747059 -15.648721921285135 80.08537795175613
376.71709287820755 -17.270607763797884 80.08149713575345
396.5996124350451 -18.952666516196377 80.07761631976695
416.4878627452108 -20.692032801824563 80.07373550378246
436.38184380870086 -22.48584124402212 80.06985468779737
456.28155562551376 -24.33122646612758 80.06597387181148
476.1869981956476 -26.225323091479233 80.06209305582517
496.0981715190973 -28.165265743413634 80.05821223984289
516.0150755959291 -30.148189045268484 80.05433142388657
535.9377104261423 -32.17122762035617 80.0504506080285
555.8660760098204 -34.231516091962774 80.04656979242199
575.8001723477028 -36.326189083451425 80.0426889770945
595.7399994421685 -38.45238121885937 80.03880816046244
615.6855572981026 -40.6072271248487 80.03492733338432
635.6368459147402 -42.7878614365895 80.03104646336959
655.5938652361136 -44.99141879841467 80.02716547243683
675.55661494652 -47.215033843075965 80.02328431237937
695.5250940249025 -49.45584066989273 80.0194035900547
715.4992994486165 -51.71097090484546 80.01552842788048
735.4792250445406 -53.977537662327116 80.01168020170726
755.464832242888 -56.252622418774926 80.00795714853265
775.4559614001798 -58.53328629516742 80.00436192217488
797.7305109244539 -40.81664752405621 80.00002705698866
799.9999999999883 -20.815097750892008 80.00000000006807
802.2694890755289 -0.8166475240495217 79.99997294314747
784.5440385998435 21.46671370480383 79.9956380779565
764.5351677571683 23.747377581167747 79.99204285159391
744.5207749555487 26.022462337587207 79.98831979841458
724.5007005515059 28.289029095040796 79.98447157223654
704.4749059752535 30.54415932996592 79.98059641005756
684.4433850536694 32.784966156755615 79.97671568772812
664.4061347641094 35.0085812013905 79.97283452766591
644.3631540855168 37.21213856319009 79.96895353672838
624.3144427021886 39.39277287490608 79.96507266670896
604.2600005581567 41.54761878087152 79.96119183962617
584.1998276526567 43.6738109162567 79.95731102298947
564.1339239905735 45.76848390772382 79.95343020765735
544.0622895742862 47.82877237931016 79.94954939204626
523.9849244045344 49.851810954379026 79.94566857618372
503.90182848140046 51.83473425622958 79.94178776022295
483.8130018048839 53.774676908175195 79.93790694423629
463.7184443750516 55.668773533538456 79.93402612824568
443.6181561918983 57.51415875565586 79.93014531225553
423.51213725542203 59.3079671978657 79.92626449626636
403.40038756562154 61.047333483506506 79.92238368027786
383.2829071224928 62.72939223591791 79.91850286428748
363.15969592602835 64.3512780784439 79.91462204828106
343.0307539762279 65.91012563444096 79.91074123220794
322.8960812731769 67.40306952728588 79.9068604159472
302.75567781735384 68.82724438032237 79.90297959940399
282.60954361037705 70.1797848164931 79.8990987834335
262.45767865620286 71.45782545679754 79.89521797388313
242.3000829576325 72.65850091633915 79.89133719357311
222.1367564842354 73.77894579812553 79.88745650280529
201.96769903823454 74.8162947118964 79.88357597694035
181.79290985185392 75.7676824066091 79.87969534710203
161.61238698622887 76.63024451519681 79.87581225695192
141.42612801311338 77.40111902696178 79.87191665093084
121.23414353389366 78.07745168787504 79.86797974883817
101.03651033172807 78.65637517547381 79.86395582255062
80.83359978764256 79.13498264271566 79.85995335486137
60.6263838060446 79.5094677734135 79.8569977876137
40.41809506033674 79.77564908320774 79.8612240996942
20.20917719834306 79.91870501622829 79.8801955244126
0.0 60.0 80.0
0.0 40.0 80.0
0.0 20.0 80.0
0.0 0.0 20.0
0.0 0.0 40.0
0.0 0.0 60.0
795.4505495006512 -60.82015762982605 19.999074063910445
795.4501670936943 -60.82072719882853 40.00000000006628
795.4505495006463 -60.82015762982791 60.00092593622215
804.5494504993538 19.17984237017391 20.00092593622569
804.5498329063059 19.17927280117148 40.00000000006985
804.5494504993491 19.179842370172075 59.99907406391399
0.0 80.0 20.0
0.0 80.0 40.0
0.0 80.0 60.0
[...]
POINT_DATA 1025
SCALARS CellEntityIds float 1
LOOKUP_TABLE default
0.0
0.24074425986738604
0.24074425986738907
0.0
0.0
0.24074425986740317
0.24074425986740053
0.0
0.001004192891813903
0.0019514360400759035
0.0031908514725120895
0.004774124164724091
0.006720027353169445
0.009033120859295677
0.011712733297831525
0.014754113334865699
0.018149960145209282
0.021891421461382028
0.02596873743662169
0.030371607228835657
0.03508939873915365
0.04011127023476055
0.04542624329606068
0.051023247976365156
0.056891151593606346
0.06301877756074192
0.06939491798467823
0.07600834227096114
0.08284780311215043
0.08990204072813242
0.0971597859169771
0.10460976228269571
0.11224068788449405
0.12004127647358906
0.1280002384319222
0.13610628149301462
0.14434811130194042
0.152714431856604
0.16119394586368405
0.16977535504461094
0.1784473603832527
0.1871986623018334
0.19601795890464727
0.20489393887711976
0.2138152187538368
0.22277030038753623
0.2317476403859368
0.2402328076846061
0.24005959638484575
0.2402328076846063
0.23174764038605278
0.22277030038776477
0.21381521875417708
0.2048939388775705
0.1960179589052072
0.1871986623025002
0.17844736038402348
0.16977535504548305
0.1611939458646537
0.1527144318576677
0.1443481113030938
0.136106281494253
0.12800023843324063
0.12004127647498156
0.11224068788590369
0.1046097622840614
0.09715978591829728
0.08990204072940562
0.08284780311337543
0.0760083422721368
0.06939491798580319
0.06301877756181495
0.05689115159462647
0.051023247977331224
0.04542624329697172
0.04011127023559618
0.03508939873989906
0.030371607229483844
0.02596873743717294
0.021891421461842926
0.018149960145586903
0.014754113335167525
0.011712733298065398
0.009033120859469897
0.0067200273532929235
0.004774124164808187
0.0031908514725647024
0.0019514360401042515
0.0010041928918256926
0.0
0.0
0.0
0.001004192891816179
0.0019514360400805235
0.0031908514725187513
0.0047741241647322715
0.006720027353178736
0.009033120859305802
0.011712733297842311
0.01475411333487703
0.01814996014522104
0.02189142146139414
0.02596873743663416
0.03037160722884839
0.03508939873916666
0.040111270234773795
0.0454262432960742
0.051023247976378895
0.056891151593620445
0.06301877756075619
0.06939491798469274
0.07600834227097587
0.08284780311216525
0.08990204072814742
0.0971597859169923
0.10460976228271114
0.11224068788450964
0.12004127647360487
0.1280002384319383
0.13610628149303095
0.14434811130195666
0.15271443185662056
0.1611939458637008
0.16977535504462785
0.17844736038326955
0.18719866230185037
0.19601795890466397
0.20489393887713617
0.21381521875385368
0.22277030038755313
0.2317476403859538
0.2402328076846217
0.24005959638486007
0.24023280768461922
0.23174764038606402
0.2227703003877757
0.21381521875418769
0.20489393887758045
0.19601795890521673
0.18719866230250948
0.17844736038403244
0.16977535504549118
0.16119394586466157
0.15271443185767508
0.14434811130310052
0.13610628149425927
0.1280002384332461
0.12004127647498643
0.11224068788590782
0.10460976228406492
0.09715978591830016
0.08990204072940798
0.08284780311337722
0.07600834227213793
0.06939491798580372
0.06301877756181487
0.056891151594625704
0.05102324797732984
0.045426243296969745
0.040111270235593556
0.03508939873989591
0.030371607229480138
0.025968737437168685
0.02189142146183818
0.018149960145581633
0.014754113335161814
0.011712733298059313
0.009033120859463539
0.006720027353286474
0.004774124164801921
0.00319085147255906
0.0019514360400998993
0.0010041928918233093
0.0
0.0
0.0
0.0
0.0
0.0
0.24075029043204435
0.24075264504170085
0.2407502904320531
0.240750290432046
0.24075264504170088
0.2407502904320518
0.0
0.0
0.0
0.0004661657966493285
6.808433831272397e-06
0.00046616579665365965
0.0011017529047283568
0.0006105713702751013
0.0011017529047410936
0.0021424489746915227
0.0016692950741433352
0.002142448974716591
0.0036179754543687226
0.0031523231060390992
0.0036179754544098048
0.0055063299306217705
0.00504725525407859
0.0055063299306828285
0.0077917928842678895
0.007339360313829196
0.007791792884354567
0.010461600765407666
0.010016356182338289
0.010461600765524406
0.013504293357733496
0.013066628011189862
0.01350429335788442
0.016908626609062866
0.016478830573736794
0.01690862660925187
0.020663372520631766
0.02024165641076346
0.020663372520862613
0.02475727925116046
0.02434380036365136
0.02475727925143664
0.029179076988252842
0.028773953872471725
0.029179076988577697
0.033917484377085826
0.03352080683565313
0.03391748437745941
0.03896121268092137
0.03857304864949431
0.03896121268134015
0.044298968115086754
0.04391936861177873
0.04429896811554329
0.0499194532811404
0.04954845601423955
0.049919453281624476
0.05581136811943776
0.0554490001547051
0.05581136811994883
0.061963410577864426
0.06160969033441279
0.06196341057840205
0.06836427709403675
0.06801921585575012
0.06836427709460025
0.0750026629486703
0.07466626602136356
0.07500266294925924
0.08186726252791161
0.08153953013392516
0.08186726252852518
0.08894676952054495
0.0886276974960974
0.08894676952118268
0.09622987706810258
0.09591945741053418
0.09622987706876376
0.10370527788053452
0.10340349917988298
0.10370527788121853
0.11136166432640544
0.11106851210678119
0.11136166432711139
0.11918772850407025
0.11890318549385703
0.11918772850476748
0.1271721622984645
0.12689620864379403
0.12717216229912448
0.1353036574271692
0.13503627085969797
0.13530365742778902
0.14357090547878382
0.14331206144634237
0.14357090547936102
0.15196259794624467
0.15171226971311944
0.1519625979467767
0.16046742625638558
0.16022558497487946
0.1604674262568704
0.16907408177883607
0.16884069652592332
0.16907408177927213
0.17777125574763175
0.1775462934406367
0.17777125574801705
0.18654763869893118
0.18633106381752612
0.18654763869926438
0.1953919187337899
0.19518369203557243
0.19539191873406925
0.20429277369387047
0.20409285640895727
0.20429277369409538
0.21323886175827303
0.2130472418706493
0.21323886175844223
0.22221877056423409
0.22203568128642856
0.22221877056434752
0.23122117239270437
0.23104689908634124
0.2312211723927616
0.000907138540388485
0.0009223120334594775
0.0009071385403896857
0.001971419598647954
0.001979255009986332
0.001971419598650335
0.003282657875249633
0.0033126709005096167
0.0032826578752529673
0.0049045940231650575
0.004946432813073096
0.00490459402316912
0.006869139591558921
0.00691745923199804
0.006869139591563539
0.009191529245536666
0.009242950258076761
0.00919152924554171
0.011875405149370681
0.011928228091400803
0.011875405149376054
0.014918012099910795
0.014971241935413748
0.014918012099916436
0.01831309997798863
0.018366101176146815
0.018313099977994497
0.02205245624875414
0.022104795537025677
0.02205245624876021
0.026126732667677028
0.026178106041739636
0.02612673266768322
0.030525900995849398
0.030576090692847013
0.03052590099585578
0.03523951302167955
0.03528836029879559
0.03523951302168607
0.04025685343165838
0.040304240594831786
0.04025685343166502
0.045567032396304996
0.045612870784692096
0.04556703239631174
0.05115904321527464
0.05120326504910002
0.05115904321528151
0.05702179914654387
0.05706435190989594
0.05702179914655089
0.06314415750373722
0.06318500000884314
0.06314415750374436
0.06951493577224933
0.06955403535667956
0.06951493577225652
0.07612292260658989
0.0761602531064765
0.07612292260659723
0.08295688547471365
0.08299242573822302
0.082956885474721
0.09000557606276949
0.09003930884547624
0.09000557606277697
0.09725773415683822
0.09728964529091268
0.09725773415684587
0.10470209047163637
0.10473216823394695
0.10470209047164408
0.11232736873990234
0.11235560336639998
0.11232736873991021
0.12012228727535451
0.1201486705842672
0.12012228727536242
0.12807556015574686
0.12810008525257735
0.12807556015575497
0.13617589812868022
0.1361985591732903
0.13617589812868836
0.14441200931279383
0.1444328013338093
0.144412009312802
0.15277259974648033
0.1527915184915005
0.15277259974648866
0.16124637382163068
0.16126341563234187
0.16124637382163903
0.16982203462951231
0.16983719633764552
0.16982203462952056
0.17848828421920723
0.17850156306799617
0.17848828421921573
0.18723382380441692
0.1872452176296525
0.18723382380442516
0.19604735334682863
0.19605686161932012
0.19604735334683687
0.204917570858196
0.20492520016172625
0.20491757085820436
0.21383315239223666
0.2138389276891899
0.21383315239224512
0.22278278890601255
0.22278678990819856
0.22278278890602102
0.2317554065218708
0.23175810263210778
0.23175540652187937
0.2402384126962702
0.2402413339426246
0.24023841269627833
0.24006470886177983
0.24006804123148362
0.24006470886178718
0.24023841269626983
0.24024133394262356
0.24023841269627655
0.23175540652198534
0.23175810263222069
0.23175540652199092
0.22278278890623932
0.22278678990842396
0.22278278890624492
0.21383315239257528
0.2138389276895268
0.21383315239258047
0.20491757085864507
0.20492520016217375
0.20491757085864998
0.1960473533473863
0.19605686161987596
0.19604735334739115
0.1872338238050813
0.18724521763031501
0.18723382380508585
0.17848828421997578
0.17850156306876264
0.17848828421998025
0.16982203463038156
0.16983719633851274
0.16982203463038595
0.16124637382259752
0.16126341563330637
0.16124637382260157
0.15277259974754098
0.15279151849255865
0.1527725997475447
0.14441200931394393
0.14443280133495684
0.14441200931394724
0.1361758981299153
0.13619855917452242
0.13617589812991832
0.12807556015706165
0.12810008525388916
0.12807556015706442
0.12012228727674343
0.12014867058565296
0.12012228727674577
0.11232736874130811
0.11235560336780258
0.11232736874131019
0.1047020904729981
0.10473216823530529
0.10470209047299983
0.09725773415815436
0.09728964529222539
0.09725773415815586
0.09000557606403857
0.09003930884674191
0.09000557606403978
0.08295688547593441
0.0829924257394403
0.08295688547593533
0.07612292260776114
0.07616025310764421
0.0761229226077617
0.06951493577336983
0.06955403535779632
0.06951493577337017
0.0631441575048058
0.06318500000990786
0.06314415750480581
0.05702179914755945
0.057064351910907564
0.057021799147559116
0.05115904321623609
0.05120326505005743
0.051159043216235434
0.04556703239721138
0.04561287078559441
0.04556703239721043
0.04025685343248933
0.04030424059565853
0.04025685343248808
0.035239513022420246
0.03528836029953202
0.03523951302241871
0.03052590099649293
0.030576090693486255
0.030525900996491145
0.026126732668223653
0.026178106042282014
0.026126732668221624
0.0220524562492105
0.022104795537477774
0.022052456249208218
0.018313099978361804
0.018366101176515742
0.018313099978359296
0.014918012100208315
0.014971241935707088
0.014918012100205585
0.011875405149600476
0.011928228091626532
0.011875405149597581
0.00919152924570712
0.009242950258243331
0.009191529245704112
0.006869139591679083
0.0069174592321146295
0.006869139591676059
0.00490459402324659
0.0049464328131515346
0.004904594023243685
0.003282657875300819
0.0033126709005583733
0.0032826578752982428
0.0019714195986760305
0.001979255010012592
0.0019714195986740646
0.0009071385403997302
0.0009223120334696138
0.0009071385403987248
0.0
0.0
0.0
0.0
0.0
0.0
0.0
0.0
0.0
0.0004661657966513645
6.8084338316744435e-06
0.000466165796651392
0.0011017529047325496
0.0006105713702758861
0.0011017529047374986
0.002142448974696875
0.001669295074144522
0.002142448974712871
0.0036179754543747534
0.003152323106040694
0.0036179754544063795
0.005506329930628304
0.005047255254080587
0.005506329930679825
0.007791792884274847
0.007339360313831605
0.00779179288435203
0.01046160076541501
0.010016356182341115
0.010461600765522362
0.013504293357741223
0.0130666280111931
0.01350429335788288
0.016908626609070908
0.016478830573740423
0.016908626609250826
0.020663372520640128
0.020241656410767497
0.020663372520862085
0.024757279251169134
0.0243438003636558
0.0247572792514366
0.029179076988261835
0.02877395387247654
0.02917907698857815
0.03391748437709509
0.03352080683565833
0.03391748437746034
0.03896121268093091
0.03857304864949987
0.03896121268134157
0.04429896811509658
0.04391936861178471
0.04429896811554523
0.04991945328115062
0.049548456014245935
0.04991945328162697
0.05581136811944832
0.05544900015471195
0.05581136811995186
0.06196341057787527
0.06160969033442004
0.06196341057840561
0.06836427709404794
0.06801921585575785
0.06836427709460435
0.07500266294868176
0.0746662660213716
0.07500266294926382
0.08186726252792333
0.08153953013393361
0.08186726252853024
0.08894676952055688
0.0886276974961063
0.08894676952118823
0.0962298770681148
0.09591945741054325
0.09622987706876973
0.10370527788054712
0.10340349917989257
0.10370527788122501
0.11136166432641831
0.11106851210679118
0.11136166432711844
0.11918772850408332
0.11890318549386755
0.11918772850477515
0.127172162298478
0.12689620864380488
0.12717216229913267
0.13530365742718303
0.13503627085970926
0.13530365742779785
0.1435709054787978
0.14331206144635397
0.14357090547937018
0.15196259794625902
0.1517122697131316
0.1519625979467865
0.16046742625640015
0.16022558497489198
0.16046742625688062
0.16907408177885094
0.1688406965259361
0.16907408177928257
0.17777125574764674
0.1775462934406497
0.1777712557480281
0.1865476386989462
0.18633106381753933
0.18654763869927554
0.1953919187338047
0.1951836920355855
0.19539191873408057
0.20429277369388532
0.20409285640897062
0.20429277369410703
0.2132388617582881
0.21304724187066296
0.21323886175845447
0.2222187705642494
0.22203568128644247
0.22221877056436
0.23122117239272005
0.23104689908635528
0.23122117239277418
0.0004119303796504577
0.00041613204741697816
0.00041193037965140593
0.00014730046659775694
0.0001770063136602723
0.00014730046659795022
0.0004119303796543377
0.0004161320474201424
0.0004119303796534981
0.0011879594769108716
0.0012172641248098669
0.0011879594769128464
0.0007955393679379458
0.0008525021826885743
0.000795539367938338
0.0011879594769225654
0.0012172641248201542
0.0011879594769210768
0.0022971854266697943
0.002346639789314114
0.0022971854266723574
0.001871620584534372
0.0019368373910173238
0.001871620584534967
0.0022971854266931025
0.0023466397893355372
0.0022971854266914706
0.0037957806216112103
0.0038542098130837656
0.0037957806216141416
0.003355752004613654
0.0034233827518668535
0.0033557520046144525
0.003795780621650099
0.003854209813120525
0.003795780621648546
0.0056903678557620185
0.005751277369487504
0.005690367855765223
0.0052464881348395775
0.005313458367348703
0.00524648813484058
0.0056903678558206895
0.0057512773695439145
0.005690367855819299
0.007975867791849183
0.008036926415574287
0.007975867791852626
0.007533081126596553
0.007598381029953459
0.00753308112659776
0.007975867791933395
0.008036926415656183
0.007975867791932208
0.01064326674242737
0.010703530387881207
0.010643266742431013
0.010204337874092128
0.010267744903934495
0.010204337874093534
0.010643266742541605
0.01070353038799311
0.010643266742540652
0.013682354640399703
0.013741413869740206
0.013682354640403524
0.013248880766919864
0.013310357176761612
0.013248880766921475
0.013682354640548088
0.013741413869886266
0.013682354640547366
0.017082399902198505
0.017140031769855395
0.017082399902202516
0.016655375457550567
0.016714924616938374
0.01665537545755239
0.017082399902384988
0.017140031770039546
0.017082399902384516
0.02083242776184676
0.020888494310679795
0.020832427761850937
0.020412503221176593
0.020470129174019278
0.020412503221178605
0.02083242776207508
0.020888494310905854
0.020832427762074848
0.02492133313549299
0.024975742443935595
0.02492133313549731
0.024508951854309832
0.02456465640487381
0.024508951854312046
0.02492133313576667
0.02497574244420701
0.024921333135766673
0.029337937076977978
0.02939062590270201
0.029337937076982443
0.028933410551167327
0.02898719418673189
0.02893341055116974
0.0293379370773003
0.029390625903022077
0.029337937077300553
0.03407101655720784
0.034121940354025396
0.034071016557212494
0.033674568701918296
0.0337264315082023
0.03367456870192088
0.03407101655757892
0.03412194035439428
0.0340710165575794
0.03910932122857285
0.039158447959356635
0.03910932122857764
0.038721115659774444
0.03877105763436848
0.03872111565977719
0.0391093212289892
0.03915844795977076
0.039109321228989906
0.044441583210902434
0.04448888937118752
0.04444158321090737
0.044061740744603305
0.04410976187909883
0.044061740744606274
0.044441583211356515
0.044488889371639535
0.04444158321135749
0.05005652301323859
0.05010199104068764
0.05005652301324368
0.049685133263001426
0.04973123355344756
0.049685133263004645
0.0500565230137203
0.05010199104116724
0.05005652301372153
0.055942853236651734
0.05598646979251275
0.055942853236656986
0.05557998251805074
0.0556241619632688
0.05557998251805418
0.05594285323716045
0.05598646979301948
0.05594285323716197
0.062089280962066506
0.06213103576782883
0.06208928096207194
0.061734977812262344
0.06177723641202077
0.061734977812265994
0.06208928096260185
0.062131035768362194
0.06208928096260366
0.0684845093335613
0.06852439436673209
0.06848450933356687
0.06813880844818265
0.06817914620247222
0.06813880844818646
0.06848450933412253
0.06852439436729141
0.06848450933412462
0.07511723863456968
0.07515524756167416
0.07511723863457542
0.07478016372842436
0.07481858063726071
0.07478016372842844
0.07511723863515635
0.07515524756225894
0.07511723863515866
0.08197616703574609
0.08201229480540054
0.08197616703575189
0.08164773295562965
0.0816842290190211
0.0816477329556339
0.08197616703635743
0.08201229480601017
0.08197616703636003
0.08904999112507545
0.0890842336712505
0.08904999112508136
0.08873020543244882
0.08876478065039826
0.08873020543245318
0.089049991125711
0.08908423367188437
0.0890499911257138
0.09632740629044884
0.09635976031295773
0.09632740629045494
0.09601627046153353
0.09604892483404265
0.09601627046153809
0.09632740629110795
0.09635976031361515
0.09632740629111096
0.10379710700034875
0.1038275698003388
0.10379710700035509
0.1034946173455359
0.10352535087260889
0.10349461734554068
0.10379710700103076
0.10382756980101898
0.10379710700103399
0.11144778701294072
0.11147635636813634
0.11144778701294718
0.11115393538711041
0.11118274806875866
0.11115393538711549
0.11144778701364459
0.11147635636883872
0.11144778701364814
0.11926813953408355
0.11929481360313979
0.11926813953409009
0.11898291388892451
0.11900980572516605
0.11898291388892972
0.11926813953477884
0.11929481360383355
0.11926813953478266
0.12724685733830984
0.12727163458671584
0.12724685733831664
0.12697024215368669
0.12699521314448706
0.12697024215369218
0.127246857338968
0.1272716345873726
0.1272468573389721
0.13537263286271706
0.13539551200471336
0.13537263286272389
0.135104609484188
0.13512765962916173
0.13510460948419353
0.13537263286333523
0.13539551200532993
0.13537263286333948
0.14363415828066467
0.14365513823289805
0.14363415828067175
0.14337470518320056
0.14339583448056945
0.14337470518320639
0.1436341582812403
0.14365513823347237
0.14363415828124484
0.15202012555974453
0.15203920540310048
0.1520201255597517
0.15176921855251074
0.1517884269970109
0.1517692185525168
0.15202012556027508
0.15203920540362972
0.15202012556027994
0.16051922650634137
0.16053640545567507
0.16051922650634873
0.16027683888836786
0.16029412647050953
0.16027683888837407
0.16051922650682485
0.16053640545615727
0.16051922650682998
0.16912015279503045
0.16913543018728588
0.1691201527950378
0.16888625546827926
0.1689016222018178
0.16888625546828565
0.16912015279546497
0.16913543018771962
0.16912015279547046
0.17781159599134758
0.17782497137657396
0.17781159599135504
0.17758615751298287
0.1775996035754463
0.1775861575129893
0.1778115959917318
0.17782497137695713
0.1778115959917372
0.18658224756726235
0.1865937211098319
0.1865822475672698
0.18636523416401818
0.18637676056780106
0.18636523416402487
0.18658224756759442
0.186593721110163
0.1865822475676
0.19542079933775405
0.1954303736473676
0.1954207993377613
0.19521217449838152
0.19522178478756555
0.19521217449838807
0.19542079933803244
0.19543037364764498
0.1954207993380382
0.2043159439528371
0.2043236278699697
0.20431594395284447
0.2041156719837463
0.20412337874707315
0.2041156719837528
0.204315943953061
0.20432362787019287
0.20431594395306668
0.21325638670198072
0.2132622103486987
0.21325638670198838
0.21306444698903867
0.2130702847687501
0.21306444698904545
0.2132563867021493