# vtk DataFile Version 2.0
mesh vtk view
ASCII
DATASET UNSTRUCTURED_GRID
POINTS 1025 double
0.0 0.0 0.0
795.8112983137652 -56.017273457733175 -0.0013276650868431679
804.1887016862438 23.982726542266796 0.0013276652122062706
0.0 80.0 0.0
0.0 0.0 80.0
795.8112983137563 -56.01727345773651 80.00132766520898
804.1887016862349 23.982726542263457 79.99867233491642
0.0 80.0 80.0
19.807336791054396 -0.0748769587360632 -0.11034622751425398
39.61491244453073 -0.20663900230421203 -0.12781990817637498
59.423067547224065 -0.4518059981616649 -0.13171256404031872
79.23221072213256 -0.7967265132706253 -0.12899033104925434
99.04531943158908 -1.237549180457654 -0.125303847651422
118.86328885067893 -1.7707681821812837 -0.12159759975512993
138.68646104090013 -2.3937061593240516 -0.11797150572253588
158.51490672358568 -3.103722156986215 -0.11438344754537151
178.34863566317037 -3.8981872569832703 -0.1108069171440864
198.18764562311142 -4.774465396830533 -0.1072326528194582
218.03193481761264 -5.729918343703433 -0.103658484259767
237.88150253951187 -6.761907050589088 -0.1000841638158713
257.73634860667056 -7.867792342249236 -0.09650976089886529
277.59647299108235 -9.044935037245223 -0.0929353310499529
297.46187569521936 -10.290695965279417 -0.08936089528776285
317.33255672271747 -11.602435961484224 -0.08578645899808199
337.2085160751371 -12.977515862775986 -0.08221202296855412
357.0897537529191 -14.413296506444967 -0.07863758711183501
376.97626975614196 -15.90713872981188 -0.07506315131655195
396.8680640848058 -17.456403370178826 -0.07148871553603836
416.7651367389034 -19.058451264836314 -0.06791427975726462
436.66748771843135 -20.710643251070824 -0.06433984397783678
456.5751170233882 -22.410340166167877 -0.0607654081975562
476.4880246537722 -24.15490284741273 -0.0571909724168263
496.40621060957875 -25.941692132089074 -0.0536165366397264
516.3296748908747 -27.768068857481605 -0.050042100886462715
536.2584174976588 -29.631393860851738 -0.04646766522365512
556.1924384300025 -31.529027979436684 -0.04289322979245922
576.1317376885872 -33.45833205054463 -0.0393187946181722
596.0763152756037 -35.41666691210447 -0.03574435824230169
616.0261711955518 -37.40139340446297 -0.03216991224500927
635.9813054477268 -39.40987237580311 -0.02859542670081854
655.9417179805794 -41.43946468274732 -0.025020829784695043
675.9074085033307 -43.48753117125108 -0.021446077095862475
695.8783760755338 -45.55143219595075 -0.01787172758187403
715.8546179131738 -47.628525833407245 -0.014302499259098022
735.8361283304808 -49.716153110034945 -0.010758080410966014
755.8228718026517 -51.81162591202631 -0.007328952482646765
775.8147012896395 -53.9122373771246 -0.004017559780220324
797.9096811146375 -36.01533324584085 -2.4920786836208417e-05
799.9999999999982 -16.013905823191465 6.270525182924358e-11
802.0903188853645 3.9846667541658505 2.4920912219613387e-05
784.1852987104021 26.087762622848963 0.004017559901137098
764.1771281974231 28.188374087920955 0.007328952599072762
744.1638716696269 30.283846889886206 0.01075808052291814
724.1453820869671 32.371474166488085 0.014302499366561612
704.1216239246405 34.448567803919055 0.017871727684808717
684.0925914968769 36.512468828593754 0.0214460771943307
664.0582820196619 38.56053531707322 0.02502082987873729
644.0186945525481 40.59012762399374 0.028595426790371848
623.9738288047571 42.59860659531108 0.03216991233017074
603.9236847247388 44.583333087647596 0.03574435832304176
583.8682623117894 46.541667949186476 0.03931879469453917
563.8075615704082 48.470972020274544 0.042893229864486966
543.7415825027862 50.36860613884076 0.04646766529138063
523.6703251096048 52.23193114219356 0.05004210094997833
503.5937893909347 54.0583078675821 0.05361653669910283
483.5119753467746 55.84509715226875 0.05719097247214719
463.42488297719206 57.58965983352427 0.060765408248922466
443.3325122821822 59.28935674863234 0.06433984402533527
423.2348632617433 60.94154873487815 0.06791427980098758
403.13193591587424 62.543596629547196 0.07148871557608955
383.02373024457125 64.09286126992603 0.07506315135305339
362.91024624782744 65.58670349330511 0.07863758714490934
342.7914839256426 67.02248413698649 0.08221202299831439
322.6674432780953 68.39756403829094 0.08578645902467115
302.5381243056264 69.70930403450863 0.08936089531131226
282.4035270097205 70.95506496256051 0.09293533107061155
262.2636513940222 72.13220765757767 0.09650976091680676
242.11849746111687 73.23809294926063 0.10008416383126727
221.96806518297643 74.27008165616905 0.10365848427279852
201.81235437743774 75.22553460306318 0.10723265283030221
181.65136433733872 76.10181274293002 0.1108069171529143
161.485093276883 76.89627784294491 0.11438344755237378
141.31353895952816 77.60629384062308 0.11797150572791015
121.13671114970889 78.22923181777992 0.12159759975907532
100.95468056875524 78.76245081951554 0.12530384765415117
80.76778927813852 79.20327348671186 0.1289903310509977
60.57693245297084 79.5481940018282 0.1317125640413673
40.38508755559666 79.79336099769121 0.12781990817706693
20.192663209011865 79.92512304126271 0.11034622751496759
0.0 60.0 0.0
0.0 40.0 0.0
0.0 20.0 0.0
19.80733679105394 -0.0748769587364073 80.11034622751436
39.61491244452982 -0.20663900230469529 80.12781990817669
59.4230675472227 -0.4518059981622524 80.13171256404112
79.23221072213074 -0.7967265132712998 80.12899033105077
99.04531943158682 -1.2375491804584138 80.1253038476539
118.86328885067626 -1.7707681821821275 80.12159759975876
138.68646104089703 -2.3937061593249833 80.11797150572754
158.5149067235822 -3.1037221569872355 80.11438344755196
178.3486356631665 -3.898187256984374 80.11080691715244
198.1876456231072 -4.774465396831715 80.10723265282978
218.03193481760806 -5.729918343704706 80.10365848427223
237.88150253950693 -6.761907050590437 80.10008416383064
257.7363486066653 -7.867792342250667 80.09650976091613
277.5964729910767 -9.04493503724673 80.09293533106988
297.46187569521345 -10.290695965281015 80.08936089531049
317.3325567227113 -11.602435961485902 80.08578645902375
337.20851607513066 -12.97751586277778 80.0822120229973
357.0897537529124 -14.413296506446834 80.0786375871438
376.976269756135 -15.90713872981384 80.07506315135187
396.8680640847986 -17.456403370180873 80.07148871557482
416.765136738896 -19.058451264838414 80.06791427979964
436.6674877184238 -20.710643251073 80.06433984402389
456.5751170233804 -22.410340166170137 80.06076540824742
476.4880246537643 -24.154902847415084 80.05719097247055
496.4062106095706 -25.941692132091504 80.05361653669739
516.3296748908664 -27.768068857484128 80.05004210094815
536.2584174976504 -29.63139386085437 80.04646766528941
556.1924384299941 -31.529027979439398 80.04289322986237
576.1317376885786 -33.45833205054736 80.0393187946923
596.0763152755951 -35.41666691210732 80.03574435832066
616.026171195543 -37.40139340446591 80.03216991232766
635.981305447718 -39.40987237580612 80.02859542678777
655.9417179805706 -41.439464682750355 80.02502082987603
675.9074085033219 -43.487531171254176 80.02144607719153
695.878376075525 -45.55143219595383 80.01787172768195
715.8546179131649 -47.62852583341029 80.0143024993636
735.836128330472 -49.71615311003813 80.01075808051985
755.8228718026427 -51.811625912029534 80.00732895259587
775.8147012896306 -53.91223737712789 80.00401755989792
797.9096811146286 -36.015333245844175 80.0000249209106
799.9999999999893 -16.01390582319481 80.00000000006268
802.0903188853556 3.984666754162511 79.99997507921478
784.1852987103933 26.087762622845638 79.9959824402231
764.1771281974143 28.188374087917666 79.99267104752072
744.1638716696181 30.28384688988296 79.98924191959237
724.1453820869583 32.37147416648495 79.9856975007442
704.1216239246316 34.448567803915985 79.98212827242143
684.0925914968681 36.5124688285907 79.97855392290747
664.058282019653 38.5605353170702 79.9749791702186
644.0186945525394 40.59012762399087 79.97140457330245
623.9738288047483 42.59860659530823 79.96783008775826
603.9236847247302 44.583333087644824 79.96425564176094
583.8682623117809 46.541667949183804 79.96068120538504
563.8075615703997 48.470972020271944 79.95710677021073
543.7415825027779 50.3686061388383 79.95353233477945
523.6703251095965 52.231931142191215 79.94995789911658
503.59378939092664 54.05830786757987 79.94638346336325
483.5119753467667 55.84509715226663 79.94280902758605
463.42488297718427 57.58965983352226 79.93923459180523
443.3325122821746 59.289356748630404 79.93566015602484
423.23486326173594 60.94154873487631 79.93208572024533
403.1319359158671 62.54359662954546 79.92851128446645
383.0237302445643 64.0928612699244 79.92493684868583
362.91024624782074 65.58670349330359 79.92136241289045
342.7914839256361 67.02248413698509 79.91778797703363
322.66744327808914 68.39756403828963 79.914213541004
302.53812430562056 69.70930403450744 79.9106391047142
282.4035270097149 70.95506496255943 79.90706466895192
262.2636513940169 72.13220765757667 79.9034902391029
242.11849746111193 73.23809294925974 79.89991583618576
221.96806518297183 74.27008165616826 79.89634151574172
201.8123543774335 75.22553460306247 79.8927673471819
181.65136433733485 76.10181274292943 79.88919308285713
161.4850932768795 76.89627784294441 79.88561655245572
141.31353895952506 77.6062938406227 79.88202849427842
121.13671114970622 78.22923181777965 79.87840240024568
100.95468056875299 78.76245081951537 79.87469615234926
80.7677892781367 79.2032734867118 79.87100966895127
60.57693245296947 79.54819400182824 79.86828743595999
40.385087555595746 79.79336099769134 79.87218009182361
20.192663209011407 79.92512304126289 79.88965377248529
0.0 60.0 80.0
0.0 40.0 80.0
0.0 20.0 80.0
0.0 0.0 20.0
0.0 0.0 40.0
0.0 0.0 60.0
795.8097166453366 -56.018566237997675 19.999147164128043
795.8093644284025 -56.01909084102628 40.00000000006105
795.8097166453321 -56.01856623799939 60.00085283599409
804.190283354668 23.98143376200229 20.000852835997346
804.1906355715976 23.98090915897373 40.00000000006434
804.1902833546636 23.9814337620006 59.99914716413131
0.0 80.0 20.0
0.0 80.0 40.0
0.0 80.0 60.0
[...]
POINT_DATA 1025
SCALARS CellEntityIds float 1
LOOKUP_TABLE default
0.0
0.24074425986738604
0.24074425986738907
0.0
0.0
0.24074425986740317
0.24074425986740053
0.0
0.001004192891813903
0.0019514360400759035
0.0031908514725120895
0.004774124164724091
0.006720027353169445
0.009033120859295677
0.011712733297831525
0.014754113334865699
0.018149960145209282
0.021891421461382028
0.02596873743662169
0.030371607228835657
0.03508939873915365
0.04011127023476055
0.04542624329606068
0.051023247976365156
0.056891151593606346
0.06301877756074192
0.06939491798467823
0.07600834227096114
0.08284780311215043
0.08990204072813242
0.0971597859169771
0.10460976228269571
0.11224068788449405
0.12004127647358906
0.1280002384319222
0.13610628149301462
0.14434811130194042
0.152714431856604
0.16119394586368405
0.16977535504461094
0.1784473603832527
0.1871986623018334
0.19601795890464727
0.20489393887711976
0.2138152187538368
0.22277030038753623
0.2317476403859368
0.2402328076846061
0.24005959638484575
0.2402328076846063
0.23174764038605278
0.22277030038776477
0.21381521875417708
0.2048939388775705
0.1960179589052072
0.1871986623025002
0.17844736038402348
0.16977535504548305
0.1611939458646537
0.1527144318576677
0.1443481113030938
0.136106281494253
0.12800023843324063
0.12004127647498156
0.11224068788590369
0.1046097622840614
0.09715978591829728
0.08990204072940562
0.08284780311337543
0.0760083422721368
0.06939491798580319
0.06301877756181495
0.05689115159462647
0.051023247977331224
0.04542624329697172
0.04011127023559618
0.03508939873989906
0.030371607229483844
0.02596873743717294
0.021891421461842926
0.018149960145586903
0.014754113335167525
0.011712733298065398
0.009033120859469897
0.0067200273532929235
0.004774124164808187
0.0031908514725647024
0.0019514360401042515
0.0010041928918256926
0.0
0.0
0.0
0.001004192891816179
0.0019514360400805235
0.0031908514725187513
0.0047741241647322715
0.006720027353178736
0.009033120859305802
0.011712733297842311
0.01475411333487703
0.01814996014522104
0.02189142146139414
0.02596873743663416
0.03037160722884839
0.03508939873916666
0.040111270234773795
0.0454262432960742
0.051023247976378895
0.056891151593620445
0.06301877756075619
0.06939491798469274
0.07600834227097587
0.08284780311216525
0.08990204072814742
0.0971597859169923
0.10460976228271114
0.11224068788450964
0.12004127647360487
0.1280002384319383
0.13610628149303095
0.14434811130195666
0.15271443185662056
0.1611939458637008
0.16977535504462785
0.17844736038326955
0.18719866230185037
0.19601795890466397
0.20489393887713617
0.21381521875385368
0.22277030038755313
0.2317476403859538
0.2402328076846217
0.24005959638486007
0.24023280768461922
0.23174764038606402
0.2227703003877757
0.21381521875418769
0.20489393887758045
0.19601795890521673
0.18719866230250948
0.17844736038403244
0.16977535504549118
0.16119394586466157
0.15271443185767508
0.14434811130310052
0.13610628149425927
0.1280002384332461
0.12004127647498643
0.11224068788590782
0.10460976228406492
0.09715978591830016
0.08990204072940798
0.08284780311337722
0.07600834227213793
0.06939491798580372
0.06301877756181487
0.056891151594625704
0.05102324797732984
0.045426243296969745
0.040111270235593556
0.03508939873989591
0.030371607229480138
0.025968737437168685
0.02189142146183818
0.018149960145581633
0.014754113335161814
0.011712733298059313
0.009033120859463539
0.006720027353286474
0.004774124164801921
0.00319085147255906
0.0019514360400998993
0.0010041928918233093
0.0
0.0
0.0
0.0
0.0
0.0
0.24075029043204435
0.24075264504170085
0.2407502904320531
0.240750290432046
0.24075264504170088
0.2407502904320518
0.0
0.0
0.0
0.0004661657966493285
6.808433831272397e-06
0.00046616579665365965
0.0011017529047283568
0.0006105713702751013
0.0011017529047410936
0.0021424489746915227
0.0016692950741433352
0.002142448974716591
0.0036179754543687226
0.0031523231060390992
0.0036179754544098048
0.0055063299306217705
0.00504725525407859
0.0055063299306828285
0.0077917928842678895
0.007339360313829196
0.007791792884354567
0.010461600765407666
0.010016356182338289
0.010461600765524406
0.013504293357733496
0.013066628011189862
0.01350429335788442
0.016908626609062866
0.016478830573736794
0.01690862660925187
0.020663372520631766
0.02024165641076346
0.020663372520862613
0.02475727925116046
0.02434380036365136
0.02475727925143664
0.029179076988252842
0.028773953872471725
0.029179076988577697
0.033917484377085826
0.03352080683565313
0.03391748437745941
0.03896121268092137
0.03857304864949431
0.03896121268134015
0.044298968115086754
0.04391936861177873
0.04429896811554329
0.0499194532811404
0.04954845601423955
0.049919453281624476
0.05581136811943776
0.0554490001547051
0.05581136811994883
0.061963410577864426
0.06160969033441279
0.06196341057840205
0.06836427709403675
0.06801921585575012
0.06836427709460025
0.0750026629486703
0.07466626602136356
0.07500266294925924
0.08186726252791161
0.08153953013392516
0.08186726252852518
0.08894676952054495
0.0886276974960974
0.08894676952118268
0.09622987706810258
0.09591945741053418
0.09622987706876376
0.10370527788053452
0.10340349917988298
0.10370527788121853
0.11136166432640544
0.11106851210678119
0.11136166432711139
0.11918772850407025
0.11890318549385703
0.11918772850476748
0.1271721622984645
0.12689620864379403
0.12717216229912448
0.1353036574271692
0.13503627085969797
0.13530365742778902
0.14357090547878382
0.14331206144634237
0.14357090547936102
0.15196259794624467
0.15171226971311944
0.1519625979467767
0.16046742625638558
0.16022558497487946
0.1604674262568704
0.16907408177883607
0.16884069652592332
0.16907408177927213
0.17777125574763175
0.1775462934406367
0.17777125574801705
0.18654763869893118
0.18633106381752612
0.18654763869926438
0.1953919187337899
0.19518369203557243
0.19539191873406925
0.20429277369387047
0.20409285640895727
0.20429277369409538
0.21323886175827303
0.2130472418706493
0.21323886175844223
0.22221877056423409
0.22203568128642856
0.22221877056434752
0.23122117239270437
0.23104689908634124
0.2312211723927616
0.000907138540388485
0.0009223120334594775
0.0009071385403896857
0.001971419598647954
0.001979255009986332
0.001971419598650335
0.003282657875249633
0.0033126709005096167
0.0032826578752529673
0.0049045940231650575
0.004946432813073096
0.00490459402316912
0.006869139591558921
0.00691745923199804
0.006869139591563539
0.009191529245536666
0.009242950258076761
0.00919152924554171
0.011875405149370681
0.011928228091400803
0.011875405149376054
0.014918012099910795
0.014971241935413748
0.014918012099916436
0.01831309997798863
0.018366101176146815
0.018313099977994497
0.02205245624875414
0.022104795537025677
0.02205245624876021
0.026126732667677028
0.026178106041739636
0.02612673266768322
0.030525900995849398
0.030576090692847013
0.03052590099585578
0.03523951302167955
0.03528836029879559
0.03523951302168607
0.04025685343165838
0.040304240594831786
0.04025685343166502
0.045567032396304996
0.045612870784692096
0.04556703239631174
0.05115904321527464
0.05120326504910002
0.05115904321528151
0.05702179914654387
0.05706435190989594
0.05702179914655089
0.06314415750373722
0.06318500000884314
0.06314415750374436
0.06951493577224933
0.06955403535667956
0.06951493577225652
0.07612292260658989
0.0761602531064765
0.07612292260659723
0.08295688547471365
0.08299242573822302
0.082956885474721
0.09000557606276949
0.09003930884547624
0.09000557606277697
0.09725773415683822
0.09728964529091268
0.09725773415684587
0.10470209047163637
0.10473216823394695
0.10470209047164408
0.11232736873990234
0.11235560336639998
0.11232736873991021
0.12012228727535451
0.1201486705842672
0.12012228727536242
0.12807556015574686
0.12810008525257735
0.12807556015575497
0.13617589812868022
0.1361985591732903
0.13617589812868836
0.14441200931279383
0.1444328013338093
0.144412009312802
0.15277259974648033
0.1527915184915005
0.15277259974648866
0.16124637382163068
0.16126341563234187
0.16124637382163903
0.16982203462951231
0.16983719633764552
0.16982203462952056
0.17848828421920723
0.17850156306799617
0.17848828421921573
0.18723382380441692
0.1872452176296525
0.18723382380442516
0.19604735334682863
0.19605686161932012
0.19604735334683687
0.204917570858196
0.20492520016172625
0.20491757085820436
0.21383315239223666
0.2138389276891899
0.21383315239224512
0.22278278890601255
0.22278678990819856
0.22278278890602102
0.2317554065218708
0.23175810263210778
0.23175540652187937
0.2402384126962702
0.2402413339426246
0.24023841269627833
0.24006470886177983
0.24006804123148362
0.24006470886178718
0.24023841269626983
0.24024133394262356
0.24023841269627655
0.23175540652198534
0.23175810263222069
0.23175540652199092
0.22278278890623932
0.22278678990842396
0.22278278890624492
0.21383315239257528
0.2138389276895268
0.21383315239258047
0.20491757085864507
0.20492520016217375
0.20491757085864998
0.1960473533473863
0.19605686161987596
0.19604735334739115
0.1872338238050813
0.18724521763031501
0.18723382380508585
0.17848828421997578
0.17850156306876264
0.17848828421998025
0.16982203463038156
0.16983719633851274
0.16982203463038595
0.16124637382259752
0.16126341563330637
0.16124637382260157
0.15277259974754098
0.15279151849255865
0.1527725997475447
0.14441200931394393
0.14443280133495684
0.14441200931394724
0.1361758981299153
0.13619855917452242
0.13617589812991832
0.12807556015706165
0.12810008525388916
0.12807556015706442
0.12012228727674343
0.12014867058565296
0.12012228727674577
0.11232736874130811
0.11235560336780258
0.11232736874131019
0.1047020904729981
0.10473216823530529
0.10470209047299983
0.09725773415815436
0.09728964529222539
0.09725773415815586
0.09000557606403857
0.09003930884674191
0.09000557606403978
0.08295688547593441
0.0829924257394403
0.08295688547593533
0.07612292260776114
0.07616025310764421
0.0761229226077617
0.06951493577336983
0.06955403535779632
0.06951493577337017
0.0631441575048058
0.06318500000990786
0.06314415750480581
0.05702179914755945
0.057064351910907564
0.057021799147559116
0.05115904321623609
0.05120326505005743
0.051159043216235434
0.04556703239721138
0.04561287078559441
0.04556703239721043
0.04025685343248933
0.04030424059565853
0.04025685343248808
0.035239513022420246
0.03528836029953202
0.03523951302241871
0.03052590099649293
0.030576090693486255
0.030525900996491145
0.026126732668223653
0.026178106042282014
0.026126732668221624
0.0220524562492105
0.022104795537477774
0.022052456249208218
0.018313099978361804
0.018366101176515742
0.018313099978359296
0.014918012100208315
0.014971241935707088
0.014918012100205585
0.011875405149600476
0.011928228091626532
0.011875405149597581
0.00919152924570712
0.009242950258243331
0.009191529245704112
0.006869139591679083
0.0069174592321146295
0.006869139591676059
0.00490459402324659
0.0049464328131515346
0.004904594023243685
0.003282657875300819
0.0033126709005583733
0.0032826578752982428
0.0019714195986760305
0.001979255010012592
0.0019714195986740646
0.0009071385403997302
0.0009223120334696138
0.0009071385403987248
0.0
0.0
0.0
0.0
0.0
0.0
0.0
0.0
0.0
0.0004661657966513645
6.8084338316744435e-06
0.000466165796651392
0.0011017529047325496
0.0006105713702758861
0.0011017529047374986
0.002142448974696875
0.001669295074144522
0.002142448974712871
0.0036179754543747534
0.003152323106040694
0.0036179754544063795
0.005506329930628304
0.005047255254080587
0.005506329930679825
0.007791792884274847
0.007339360313831605
0.00779179288435203
0.01046160076541501
0.010016356182341115
0.010461600765522362
0.013504293357741223
0.0130666280111931
0.01350429335788288
0.016908626609070908
0.016478830573740423
0.016908626609250826
0.020663372520640128
0.020241656410767497
0.020663372520862085
0.024757279251169134
0.0243438003636558
0.0247572792514366
0.029179076988261835
0.02877395387247654
0.02917907698857815
0.03391748437709509
0.03352080683565833
0.03391748437746034
0.03896121268093091
0.03857304864949987
0.03896121268134157
0.04429896811509658
0.04391936861178471
0.04429896811554523
0.04991945328115062
0.049548456014245935
0.04991945328162697
0.05581136811944832
0.05544900015471195
0.05581136811995186
0.06196341057787527
0.06160969033442004
0.06196341057840561
0.06836427709404794
0.06801921585575785
0.06836427709460435
0.07500266294868176
0.0746662660213716
0.07500266294926382
0.08186726252792333
0.08153953013393361
0.08186726252853024
0.08894676952055688
0.0886276974961063
0.08894676952118823
0.0962298770681148
0.09591945741054325
0.09622987706876973
0.10370527788054712
0.10340349917989257
0.10370527788122501
0.11136166432641831
0.11106851210679118
0.11136166432711844
0.11918772850408332
0.11890318549386755
0.11918772850477515
0.127172162298478
0.12689620864380488
0.12717216229913267
0.13530365742718303
0.13503627085970926
0.13530365742779785
0.1435709054787978
0.14331206144635397
0.14357090547937018
0.15196259794625902
0.1517122697131316
0.1519625979467865
0.16046742625640015
0.16022558497489198
0.16046742625688062
0.16907408177885094
0.1688406965259361
0.16907408177928257
0.17777125574764674
0.1775462934406497
0.1777712557480281
0.1865476386989462
0.18633106381753933
0.18654763869927554
0.1953919187338047
0.1951836920355855
0.19539191873408057
0.20429277369388532
0.20409285640897062
0.20429277369410703
0.2132388617582881
0.21304724187066296
0.21323886175845447
0.2222187705642494
0.22203568128644247
0.22221877056436
0.23122117239272005
0.23104689908635528
0.23122117239277418
0.0004119303796504577
0.00041613204741697816
0.00041193037965140593
0.00014730046659775694
0.0001770063136602723
0.00014730046659795022
0.0004119303796543377
0.0004161320474201424
0.0004119303796534981
0.0011879594769108716
0.0012172641248098669
0.0011879594769128464
0.0007955393679379458
0.0008525021826885743
0.000795539367938338
0.0011879594769225654
0.0012172641248201542
0.0011879594769210768
0.0022971854266697943
0.002346639789314114
0.0022971854266723574
0.001871620584534372
0.0019368373910173238
0.001871620584534967
0.0022971854266931025
0.0023466397893355372
0.0022971854266914706
0.0037957806216112103
0.0038542098130837656
0.0037957806216141416
0.003355752004613654
0.0034233827518668535
0.0033557520046144525
0.003795780621650099
0.003854209813120525
0.003795780621648546
0.0056903678557620185
0.005751277369487504
0.005690367855765223
0.0052464881348395775
0.005313458367348703
0.00524648813484058
0.0056903678558206895
0.0057512773695439145
0.005690367855819299
0.007975867791849183
0.008036926415574287
0.007975867791852626
0.007533081126596553
0.007598381029953459
0.00753308112659776
0.007975867791933395
0.008036926415656183
0.007975867791932208
0.01064326674242737
0.010703530387881207
0.010643266742431013
0.010204337874092128
0.010267744903934495
0.010204337874093534
0.010643266742541605
0.01070353038799311
0.010643266742540652
0.013682354640399703
0.013741413869740206
0.013682354640403524
0.013248880766919864
0.013310357176761612
0.013248880766921475
0.013682354640548088
0.013741413869886266
0.013682354640547366
0.017082399902198505
0.017140031769855395
0.017082399902202516
0.016655375457550567
0.016714924616938374
0.01665537545755239
0.017082399902384988
0.017140031770039546
0.017082399902384516
0.02083242776184676
0.020888494310679795
0.020832427761850937
0.020412503221176593
0.020470129174019278
0.020412503221178605
0.02083242776207508
0.020888494310905854
0.020832427762074848
0.02492133313549299
0.024975742443935595
0.02492133313549731
0.024508951854309832
0.02456465640487381
0.024508951854312046
0.02492133313576667
0.02497574244420701
0.024921333135766673
0.029337937076977978
0.02939062590270201
0.029337937076982443
0.028933410551167327
0.02898719418673189
0.02893341055116974
0.0293379370773003
0.029390625903022077
0.029337937077300553
0.03407101655720784
0.034121940354025396
0.034071016557212494
0.033674568701918296
0.0337264315082023
0.03367456870192088
0.03407101655757892
0.03412194035439428
0.0340710165575794
0.03910932122857285
0.039158447959356635
0.03910932122857764
0.038721115659774444
0.03877105763436848
0.03872111565977719
0.0391093212289892
0.03915844795977076
0.039109321228989906
0.044441583210902434
0.04448888937118752
0.04444158321090737
0.044061740744603305
0.04410976187909883
0.044061740744606274
0.044441583211356515
0.044488889371639535
0.04444158321135749
0.05005652301323859
0.05010199104068764
0.05005652301324368
0.049685133263001426
0.04973123355344756
0.049685133263004645
0.0500565230137203
0.05010199104116724
0.05005652301372153
0.055942853236651734
0.05598646979251275
0.055942853236656986
0.05557998251805074
0.0556241619632688
0.05557998251805418
0.05594285323716045
0.05598646979301948
0.05594285323716197
0.062089280962066506
0.06213103576782883
0.06208928096207194
0.061734977812262344
0.06177723641202077
0.061734977812265994
0.06208928096260185
0.062131035768362194
0.06208928096260366
0.0684845093335613
0.06852439436673209
0.06848450933356687
0.06813880844818265
0.06817914620247222
0.06813880844818646
0.06848450933412253
0.06852439436729141
0.06848450933412462
0.07511723863456968
0.07515524756167416
0.07511723863457542
0.07478016372842436
0.07481858063726071
0.07478016372842844
0.07511723863515635
0.07515524756225894
0.07511723863515866
0.08197616703574609
0.08201229480540054
0.08197616703575189
0.08164773295562965
0.0816842290190211
0.0816477329556339
0.08197616703635743
0.08201229480601017
0.08197616703636003
0.08904999112507545
0.0890842336712505
0.08904999112508136
0.08873020543244882
0.08876478065039826
0.08873020543245318
0.089049991125711
0.08908423367188437
0.0890499911257138
0.09632740629044884
0.09635976031295773
0.09632740629045494
0.09601627046153353
0.09604892483404265
0.09601627046153809
0.09632740629110795
0.09635976031361515
0.09632740629111096
0.10379710700034875
0.1038275698003388
0.10379710700035509
0.1034946173455359
0.10352535087260889
0.10349461734554068
0.10379710700103076
0.10382756980101898
0.10379710700103399
0.11144778701294072
0.11147635636813634
0.11144778701294718
0.11115393538711041
0.11118274806875866
0.11115393538711549
0.11144778701364459
0.11147635636883872
0.11144778701364814
0.11926813953408355
0.11929481360313979
0.11926813953409009
0.11898291388892451
0.11900980572516605
0.11898291388892972
0.11926813953477884
0.11929481360383355
0.11926813953478266
0.12724685733830984
0.12727163458671584
0.12724685733831664
0.12697024215368669
0.12699521314448706
0.12697024215369218
0.127246857338968
0.1272716345873726
0.1272468573389721
0.13537263286271706
0.13539551200471336
0.13537263286272389
0.135104609484188
0.13512765962916173
0.13510460948419353
0.13537263286333523
0.13539551200532993
0.13537263286333948
0.14363415828066467
0.14365513823289805
0.14363415828067175
0.14337470518320056
0.14339583448056945
0.14337470518320639
0.1436341582812403
0.14365513823347237
0.14363415828124484
0.15202012555974453
0.15203920540310048
0.1520201255597517
0.15176921855251074
0.1517884269970109
0.1517692185525168
0.15202012556027508
0.15203920540362972
0.15202012556027994
0.16051922650634137
0.16053640545567507
0.16051922650634873
0.16027683888836786
0.16029412647050953
0.16027683888837407
0.16051922650682485
0.16053640545615727
0.16051922650682998
0.16912015279503045
0.16913543018728588
0.1691201527950378
0.16888625546827926
0.1689016222018178
0.16888625546828565
0.16912015279546497
0.16913543018771962
0.16912015279547046
0.17781159599134758
0.17782497137657396
0.17781159599135504
0.17758615751298287
0.1775996035754463
0.1775861575129893
0.1778115959917318
0.17782497137695713
0.1778115959917372
0.18658224756726235
0.1865937211098319
0.1865822475672698
0.18636523416401818
0.18637676056780106
0.18636523416402487
0.18658224756759442
0.186593721110163
0.1865822475676
0.19542079933775405
0.1954303736473676
0.1954207993377613
0.19521217449838152
0.19522178478756555
0.19521217449838807
0.19542079933803244
0.19543037364764498
0.1954207993380382
0.2043159439528371
0.2043236278699697
0.20431594395284447
0.2041156719837463
0.20412337874707315
0.2041156719837528
0.204315943953061
0.20432362787019287
0.20431594395306668
0.21325638670198072
0.2132622103486987
0.21325638670198838
0.21306444698903867
0.2130702847687501
0.21306444698904545
0.2132563867021493