# vtk DataFile Version 2.0
mesh vtk view
ASCII
DATASET UNSTRUCTURED_GRID
POINTS 1025 double
0.0 0.0 0.0
795.9309755048005 -54.41677993036937 -0.001289731798647649
804.0690244952083 25.583220069630592 0.001289731920428949
0.0 80.0 0.0
0.0 0.0 80.0
795.9309755047918 -54.41677993037261 80.0012897319173
804.0690244951996 25.583220069627345 79.99871026820453
0.0 80.0 80.0
19.812841454164893 -0.07273761705788998 -0.10719347815670388
39.62591494611094 -0.20073503080980598 -0.12416791079990715
59.43955133158226 -0.43889725535704593 -0.12794934792488108
79.25414755863427 -0.7739628986057504 -0.12530489301927566
99.07259601924714 -1.2021906324445784 -0.12172373771852425
118.8957663120744 -1.720174805547533 -0.1181233826192691
138.7239907254292 -2.325314554771936 -0.1146008912733206
158.55733796003503 -3.0150443810723235 -0.1111153490440752
178.39581750134292 -3.7868104782123204 -0.10764100522568394
198.23942717671125 -4.638052099778233 -0.10416886273890226
218.08816525136663 -5.566206391026193 -0.10069681328091652
237.94203103835147 -6.568709706286544 -0.09722461627827499
257.80102436073196 -7.64299827532783 -0.09375233915889772
277.66514519130243 -8.78650832189536 -0.09028003587709711
297.5343935324632 -9.99667608055715 -0.08680772685096964
317.40876938774613 -11.270937791156104 -0.08333541731242251
337.2882727586671 -12.606729695268102 -0.07986310802659545
357.1729036456544 -14.001488034832255 -0.07639079890863973
377.06266204878426 -15.452649051817257 -0.07291848985036477
396.95754796805676 -16.95764898817372 -0.06944618080643727
416.85756140346496 -18.513924085840994 -0.06597387176419993
436.76270235500544 -20.118910586754517 -0.06250156272132716
456.67297082267686 -21.7700447328488 -0.059029253677626035
476.58836680647755 -23.464762766058083 -0.05555694463348841
496.5088903064029 -25.2005009283151 -0.052084635592877085
516.4345413225202 -26.974695461553566 -0.04861232657542093
536.3653198548279 -28.78478260768455 -0.04514001764583641
556.3012259033935 -30.628198608595643 -0.04166770894124611
576.242259468879 -32.50237970624335 -0.038195400486224426
596.1884205534125 -34.404762143187206 -0.034723090863950215
616.139709161365 -36.33278216433546 -0.031250771895151866
636.0961252920524 -38.283876022208744 -0.027778414509366585
656.057668895398 -40.25547997752598 -0.02430594893370376
676.024339688931 -42.24503028064391 -0.020833332035980694
695.9961367590744 -44.24996270463788 -0.017361106793820486
715.9730574013563 -46.26771080959562 -0.013893856423123796
735.9550960924578 -48.29569159260539 -0.010450706684938416
755.9422183225696 -50.331293743111274 -0.0071195538402854305
775.9342812527896 -52.37188773777819 -0.0039027723579283147
797.9694045113621 -34.414895153103615 -2.4208764355173897e-05
799.9999999999982 -14.413508513959172 6.091367320555091e-11
802.0305954886397 5.585104846903093 2.4208886156195867e-05
784.0657187472518 27.628112262196133 0.003902772475390324
764.0577816775049 29.668706256837496 0.00711955395338497
744.0449039076498 31.704308407318017 0.01045070679369191
724.0269425987843 33.7322891903027 0.013893856527516997
704.0038632410997 35.75003729523565 0.017361106893814184
683.9756603112762 37.754969719205356 0.020833332131635542
663.9423311048428 39.74452002229969 0.024305949025059084
643.9038747082221 41.71612397759391 0.02777841459636123
623.8602908389433 43.66721783544505 0.03125077197788015
603.8115794469297 45.59523785657194 0.034723090942383426
583.7577405314972 47.49762029349542 0.03819540056040949
563.6987740970167 49.37180139112384 0.041667709011215914
543.6346801456166 51.21521739201673 0.04514001771162691
523.5654586779586 53.02530453813088 0.04861232663712181
503.49110969410987 54.79949907136546 0.05208463565055704
483.41163319406866 56.5352372336325 0.05555694468722871
463.32702917790266 58.229955266852144 0.05902925372752469
443.23729764560744 59.881089412957124 0.06250156276746856
423.14243859718107 61.48607591388163 0.06597387180667366
403.0424520326226 63.04235101156013 0.06944618084534414
382.9373379519282 64.54735094792814 0.07291848988582329
362.8270963550914 65.99851196492497 0.07639079894076908
342.7117272421118 67.39327030450117 0.07986310805550542
322.5912306130659 68.72906220862548 0.08333541733825199
302.46560646838185 70.00332391923696 0.08680772687384622
282.3348548094996 71.21349167791593 0.09028003589716552
262.19897563996005 72.35700172450402 0.09375233917632658
242.05796896227656 73.43129029356747 0.09722461629323106
221.91183474922175 74.43379360884994 0.10069681329357572
201.76057282383726 75.36194790011851 0.10416886274943644
181.60418249916557 76.21318952170344 0.10764100523425961
161.4426620404331 76.98495561886077 0.11111534905087742
141.27600927499864 77.6746854451767 0.11460089127854131
121.104233688313 78.27982519441478 0.11812338262310175
100.92740398109682 78.79780936752938 0.12172373772117545
80.74585244163652 79.22603710137723 0.1253048930209692
60.56044866861242 79.5611027446331 0.12794934792589968
40.374085054016305 79.79926496918576 0.1241679108005793
20.1871585459013 79.92726238294092 0.10719347815739709
0.0 60.0 0.0
0.0 40.0 0.0
0.0 20.0 0.0
19.81284145416445 -0.07273761705822425 80.1071934781568
39.62591494611006 -0.20073503081027547 80.12416791080021
59.43955133158094 -0.4388972553576167 80.12794934792565
79.25414755863251 -0.7739628986064057 80.12530489302075
99.07259601924495 -1.2021906324453164 80.12172373772093
118.8957663120718 -1.7201748055483526 80.1181233826228
138.72399072542618 -2.325314554772841 80.11460089127819
158.55733796003165 -3.015044381073315 80.11111534905046
178.39581750133914 -3.786810478213392 80.1076410052338
198.23942717670712 -4.638052099779381 80.10416886274892
218.08816525136214 -5.566206391027429 80.10069681329303
237.94203103834667 -6.568709706287853 80.09722461629264
257.80102436072684 -7.64299827532922 80.09375233917568
277.66514519129703 -8.786508321896825 80.09028003589646
297.53439353245744 -9.996676080558702 80.08680772687305
317.4087693877401 -11.270937791157735 80.08333541733735
337.28827275866087 -12.606729695269847 80.07986310805452
357.1729036456479 -14.00148803483407 80.0763907989397
377.0626620487775 -15.45264905181916 80.07291848988467
396.95754796804977 -16.95764898817571 80.06944618084411
416.85756140345774 -18.513924085843033 80.06597387180535
436.76270235499805 -20.118910586756634 80.06250156276607
456.6729708226693 -21.770044732850995 80.05902925372607
476.5883668064698 -23.46476276606037 80.05555694468568
496.5088903063951 -25.200500928317464 80.0520846356489
516.4345413225122 -26.974695461556017 80.04861232663535
536.3653198548197 -28.784782607687106 80.04514001770971
556.3012259033853 -30.62819860859828 80.04166770900916
576.2422594688705 -32.50237970624602 80.03819540055824
596.1884205534041 -34.40476214318997 80.03472309094008
616.1397091613566 -36.33278216433831 80.03125077197544
636.0961252920439 -38.283876022211665 80.02777841459384
656.0576688953895 -40.25547997752892 80.02430594902242
676.0243396889225 -42.245030280646915 80.0208333321289
695.9961367590657 -44.24996270464087 80.01736110689103
715.9730574013477 -46.267710809598576 80.01389385652465
735.9550960924491 -48.29569159260848 80.0104507067907
755.942218322561 -50.33129374311441 80.00711955395028
775.9342812527809 -52.371887737781385 80.00390277247226
797.9694045113534 -34.414895153106826 80.00002420888458
799.9999999999895 -14.41350851396242 80.0000000000609
802.0305954886312 5.585104846899853 79.99997579123722
784.0657187472433 27.6281122621929 79.9960972276453
764.0577816774963 29.668706256834298 79.99288044616297
744.0449039076411 31.70430840731487 79.9895492933183
724.0269425987757 33.73228919029966 79.98610614358007
704.003863241091 35.750037295232666 79.9826388932094
683.9756603112677 37.754969719202386 79.97916666796726
663.9423311048342 39.74452002229676 79.9756940510695
643.9038747082136 41.716123977591124 79.97222158549381
623.8602908389349 43.66721783544228 79.96874922810802
603.8115794469213 45.59523785656925 79.96527690913919
583.7577405314889 47.49762029349284 79.9618045995169
563.6987740970084 49.37180139112131 79.95833229106185
543.6346801456084 51.21521739201435 79.95485998235719
523.5654586779507 53.0253045381286 79.95138767342755
503.491109694102 54.7994990713633 79.94791536441001
483.4116331940609 56.53523723363044 79.94444305536932
463.3270291778951 58.2299552668502 79.94097074632508
443.23729764560005 59.88108941295525 79.93749843728126
423.1424385971739 61.48607591387983 79.93402612823832
403.0424520326156 63.04235101155845 79.93055381919598
382.93733795192145 64.54735094792656 79.92708151015195
362.82709635508485 65.99851196492348 79.92360920109358
342.71172724210555 67.3932703044998 79.92013689197553
322.59123061305985 68.72906220862421 79.91666458268959
302.4656064683761 70.0033239192358 79.91319227315094
282.3348548094942 71.21349167791487 79.90971996412472
262.19897563995494 72.35700172450305 79.90624766084281
242.05796896227176 73.4312902935666 79.90277538372331
221.9118347492173 74.43379360884916 79.89930318672053
201.76057282383314 75.36194790011784 79.89583113726242
181.60418249916182 76.21318952170287 79.8923589947755
161.44266204042972 76.9849556188603 79.88888465095698
141.27600927499563 77.67468544517634 79.8853991087276
121.1042336883104 78.27982519441451 79.88187661738152
100.92740398109463 78.79780936752921 79.87827626228213
80.74585244163475 79.22603710137717 79.87469510698124
60.560448668611095 79.56110274463313 79.87205065207542
40.37408505401542 79.79926496918587 79.87583208920007
20.187158545900857 79.9272623829411 79.89280652184286
0.0 60.0 80.0
0.0 40.0 80.0
0.0 20.0 80.0
0.0 0.0 20.0
0.0 0.0 40.0
0.0 0.0 60.0
795.9294390268984 -54.41803577405489 19.99917153086724
795.9290968733054 -54.41854538842553 40.0000000000593
795.9294390268941 -54.418035774056555 60.0008284692514
804.070560973106 25.58196422594507 20.000828469254564
804.0709031266947 25.58145461157448 40.0000000000625
804.0705609731018 25.58196422594343 59.99917153087041
0.0 80.0 20.0
0.0 80.0 40.0
0.0 80.0 60.0
[...]
POINT_DATA 1025
SCALARS CellEntityIds float 1
LOOKUP_TABLE default
0.0
0.24074425986738604
0.24074425986738907
0.0
0.0
0.24074425986740317
0.24074425986740053
0.0
0.001004192891813903
0.0019514360400759035
0.0031908514725120895
0.004774124164724091
0.006720027353169445
0.009033120859295677
0.011712733297831525
0.014754113334865699
0.018149960145209282
0.021891421461382028
0.02596873743662169
0.030371607228835657
0.03508939873915365
0.04011127023476055
0.04542624329606068
0.051023247976365156
0.056891151593606346
0.06301877756074192
0.06939491798467823
0.07600834227096114
0.08284780311215043
0.08990204072813242
0.0971597859169771
0.10460976228269571
0.11224068788449405
0.12004127647358906
0.1280002384319222
0.13610628149301462
0.14434811130194042
0.152714431856604
0.16119394586368405
0.16977535504461094
0.1784473603832527
0.1871986623018334
0.19601795890464727
0.20489393887711976
0.2138152187538368
0.22277030038753623
0.2317476403859368
0.2402328076846061
0.24005959638484575
0.2402328076846063
0.23174764038605278
0.22277030038776477
0.21381521875417708
0.2048939388775705
0.1960179589052072
0.1871986623025002
0.17844736038402348
0.16977535504548305
0.1611939458646537
0.1527144318576677
0.1443481113030938
0.136106281494253
0.12800023843324063
0.12004127647498156
0.11224068788590369
0.1046097622840614
0.09715978591829728
0.08990204072940562
0.08284780311337543
0.0760083422721368
0.06939491798580319
0.06301877756181495
0.05689115159462647
0.051023247977331224
0.04542624329697172
0.04011127023559618
0.03508939873989906
0.030371607229483844
0.02596873743717294
0.021891421461842926
0.018149960145586903
0.014754113335167525
0.011712733298065398
0.009033120859469897
0.0067200273532929235
0.004774124164808187
0.0031908514725647024
0.0019514360401042515
0.0010041928918256926
0.0
0.0
0.0
0.001004192891816179
0.0019514360400805235
0.0031908514725187513
0.0047741241647322715
0.006720027353178736
0.009033120859305802
0.011712733297842311
0.01475411333487703
0.01814996014522104
0.02189142146139414
0.02596873743663416
0.03037160722884839
0.03508939873916666
0.040111270234773795
0.0454262432960742
0.051023247976378895
0.056891151593620445
0.06301877756075619
0.06939491798469274
0.07600834227097587
0.08284780311216525
0.08990204072814742
0.0971597859169923
0.10460976228271114
0.11224068788450964
0.12004127647360487
0.1280002384319383
0.13610628149303095
0.14434811130195666
0.15271443185662056
0.1611939458637008
0.16977535504462785
0.17844736038326955
0.18719866230185037
0.19601795890466397
0.20489393887713617
0.21381521875385368
0.22277030038755313
0.2317476403859538
0.2402328076846217
0.24005959638486007
0.24023280768461922
0.23174764038606402
0.2227703003877757
0.21381521875418769
0.20489393887758045
0.19601795890521673
0.18719866230250948
0.17844736038403244
0.16977535504549118
0.16119394586466157
0.15271443185767508
0.14434811130310052
0.13610628149425927
0.1280002384332461
0.12004127647498643
0.11224068788590782
0.10460976228406492
0.09715978591830016
0.08990204072940798
0.08284780311337722
0.07600834227213793
0.06939491798580372
0.06301877756181487
0.056891151594625704
0.05102324797732984
0.045426243296969745
0.040111270235593556
0.03508939873989591
0.030371607229480138
0.025968737437168685
0.02189142146183818
0.018149960145581633
0.014754113335161814
0.011712733298059313
0.009033120859463539
0.006720027353286474
0.004774124164801921
0.00319085147255906
0.0019514360400998993
0.0010041928918233093
0.0
0.0
0.0
0.0
0.0
0.0
0.24075029043204435
0.24075264504170085
0.2407502904320531
0.240750290432046
0.24075264504170088
0.2407502904320518
0.0
0.0
0.0
0.0004661657966493285
6.808433831272397e-06
0.00046616579665365965
0.0011017529047283568
0.0006105713702751013
0.0011017529047410936
0.0021424489746915227
0.0016692950741433352
0.002142448974716591
0.0036179754543687226
0.0031523231060390992
0.0036179754544098048
0.0055063299306217705
0.00504725525407859
0.0055063299306828285
0.0077917928842678895
0.007339360313829196
0.007791792884354567
0.010461600765407666
0.010016356182338289
0.010461600765524406
0.013504293357733496
0.013066628011189862
0.01350429335788442
0.016908626609062866
0.016478830573736794
0.01690862660925187
0.020663372520631766
0.02024165641076346
0.020663372520862613
0.02475727925116046
0.02434380036365136
0.02475727925143664
0.029179076988252842
0.028773953872471725
0.029179076988577697
0.033917484377085826
0.03352080683565313
0.03391748437745941
0.03896121268092137
0.03857304864949431
0.03896121268134015
0.044298968115086754
0.04391936861177873
0.04429896811554329
0.0499194532811404
0.04954845601423955
0.049919453281624476
0.05581136811943776
0.0554490001547051
0.05581136811994883
0.061963410577864426
0.06160969033441279
0.06196341057840205
0.06836427709403675
0.06801921585575012
0.06836427709460025
0.0750026629486703
0.07466626602136356
0.07500266294925924
0.08186726252791161
0.08153953013392516
0.08186726252852518
0.08894676952054495
0.0886276974960974
0.08894676952118268
0.09622987706810258
0.09591945741053418
0.09622987706876376
0.10370527788053452
0.10340349917988298
0.10370527788121853
0.11136166432640544
0.11106851210678119
0.11136166432711139
0.11918772850407025
0.11890318549385703
0.11918772850476748
0.1271721622984645
0.12689620864379403
0.12717216229912448
0.1353036574271692
0.13503627085969797
0.13530365742778902
0.14357090547878382
0.14331206144634237
0.14357090547936102
0.15196259794624467
0.15171226971311944
0.1519625979467767
0.16046742625638558
0.16022558497487946
0.1604674262568704
0.16907408177883607
0.16884069652592332
0.16907408177927213
0.17777125574763175
0.1775462934406367
0.17777125574801705
0.18654763869893118
0.18633106381752612
0.18654763869926438
0.1953919187337899
0.19518369203557243
0.19539191873406925
0.20429277369387047
0.20409285640895727
0.20429277369409538
0.21323886175827303
0.2130472418706493
0.21323886175844223
0.22221877056423409
0.22203568128642856
0.22221877056434752
0.23122117239270437
0.23104689908634124
0.2312211723927616
0.000907138540388485
0.0009223120334594775
0.0009071385403896857
0.001971419598647954
0.001979255009986332
0.001971419598650335
0.003282657875249633
0.0033126709005096167
0.0032826578752529673
0.0049045940231650575
0.004946432813073096
0.00490459402316912
0.006869139591558921
0.00691745923199804
0.006869139591563539
0.009191529245536666
0.009242950258076761
0.00919152924554171
0.011875405149370681
0.011928228091400803
0.011875405149376054
0.014918012099910795
0.014971241935413748
0.014918012099916436
0.01831309997798863
0.018366101176146815
0.018313099977994497
0.02205245624875414
0.022104795537025677
0.02205245624876021
0.026126732667677028
0.026178106041739636
0.02612673266768322
0.030525900995849398
0.030576090692847013
0.03052590099585578
0.03523951302167955
0.03528836029879559
0.03523951302168607
0.04025685343165838
0.040304240594831786
0.04025685343166502
0.045567032396304996
0.045612870784692096
0.04556703239631174
0.05115904321527464
0.05120326504910002
0.05115904321528151
0.05702179914654387
0.05706435190989594
0.05702179914655089
0.06314415750373722
0.06318500000884314
0.06314415750374436
0.06951493577224933
0.06955403535667956
0.06951493577225652
0.07612292260658989
0.0761602531064765
0.07612292260659723
0.08295688547471365
0.08299242573822302
0.082956885474721
0.09000557606276949
0.09003930884547624
0.09000557606277697
0.09725773415683822
0.09728964529091268
0.09725773415684587
0.10470209047163637
0.10473216823394695
0.10470209047164408
0.11232736873990234
0.11235560336639998
0.11232736873991021
0.12012228727535451
0.1201486705842672
0.12012228727536242
0.12807556015574686
0.12810008525257735
0.12807556015575497
0.13617589812868022
0.1361985591732903
0.13617589812868836
0.14441200931279383
0.1444328013338093
0.144412009312802
0.15277259974648033
0.1527915184915005
0.15277259974648866
0.16124637382163068
0.16126341563234187
0.16124637382163903
0.16982203462951231
0.16983719633764552
0.16982203462952056
0.17848828421920723
0.17850156306799617
0.17848828421921573
0.18723382380441692
0.1872452176296525
0.18723382380442516
0.19604735334682863
0.19605686161932012
0.19604735334683687
0.204917570858196
0.20492520016172625
0.20491757085820436
0.21383315239223666
0.2138389276891899
0.21383315239224512
0.22278278890601255
0.22278678990819856
0.22278278890602102
0.2317554065218708
0.23175810263210778
0.23175540652187937
0.2402384126962702
0.2402413339426246
0.24023841269627833
0.24006470886177983
0.24006804123148362
0.24006470886178718
0.24023841269626983
0.24024133394262356
0.24023841269627655
0.23175540652198534
0.23175810263222069
0.23175540652199092
0.22278278890623932
0.22278678990842396
0.22278278890624492
0.21383315239257528
0.2138389276895268
0.21383315239258047
0.20491757085864507
0.20492520016217375
0.20491757085864998
0.1960473533473863
0.19605686161987596
0.19604735334739115
0.1872338238050813
0.18724521763031501
0.18723382380508585
0.17848828421997578
0.17850156306876264
0.17848828421998025
0.16982203463038156
0.16983719633851274
0.16982203463038595
0.16124637382259752
0.16126341563330637
0.16124637382260157
0.15277259974754098
0.15279151849255865
0.1527725997475447
0.14441200931394393
0.14443280133495684
0.14441200931394724
0.1361758981299153
0.13619855917452242
0.13617589812991832
0.12807556015706165
0.12810008525388916
0.12807556015706442
0.12012228727674343
0.12014867058565296
0.12012228727674577
0.11232736874130811
0.11235560336780258
0.11232736874131019
0.1047020904729981
0.10473216823530529
0.10470209047299983
0.09725773415815436
0.09728964529222539
0.09725773415815586
0.09000557606403857
0.09003930884674191
0.09000557606403978
0.08295688547593441
0.0829924257394403
0.08295688547593533
0.07612292260776114
0.07616025310764421
0.0761229226077617
0.06951493577336983
0.06955403535779632
0.06951493577337017
0.0631441575048058
0.06318500000990786
0.06314415750480581
0.05702179914755945
0.057064351910907564
0.057021799147559116
0.05115904321623609
0.05120326505005743
0.051159043216235434
0.04556703239721138
0.04561287078559441
0.04556703239721043
0.04025685343248933
0.04030424059565853
0.04025685343248808
0.035239513022420246
0.03528836029953202
0.03523951302241871
0.03052590099649293
0.030576090693486255
0.030525900996491145
0.026126732668223653
0.026178106042282014
0.026126732668221624
0.0220524562492105
0.022104795537477774
0.022052456249208218
0.018313099978361804
0.018366101176515742
0.018313099978359296
0.014918012100208315
0.014971241935707088
0.014918012100205585
0.011875405149600476
0.011928228091626532
0.011875405149597581
0.00919152924570712
0.009242950258243331
0.009191529245704112
0.006869139591679083
0.0069174592321146295
0.006869139591676059
0.00490459402324659
0.0049464328131515346
0.004904594023243685
0.003282657875300819
0.0033126709005583733
0.0032826578752982428
0.0019714195986760305
0.001979255010012592
0.0019714195986740646
0.0009071385403997302
0.0009223120334696138
0.0009071385403987248
0.0
0.0
0.0
0.0
0.0
0.0
0.0
0.0
0.0
0.0004661657966513645
6.8084338316744435e-06
0.000466165796651392
0.0011017529047325496
0.0006105713702758861
0.0011017529047374986
0.002142448974696875
0.001669295074144522
0.002142448974712871
0.0036179754543747534
0.003152323106040694
0.0036179754544063795
0.005506329930628304
0.005047255254080587
0.005506329930679825
0.007791792884274847
0.007339360313831605
0.00779179288435203
0.01046160076541501
0.010016356182341115
0.010461600765522362
0.013504293357741223
0.0130666280111931
0.01350429335788288
0.016908626609070908
0.016478830573740423
0.016908626609250826
0.020663372520640128
0.020241656410767497
0.020663372520862085
0.024757279251169134
0.0243438003636558
0.0247572792514366
0.029179076988261835
0.02877395387247654
0.02917907698857815
0.03391748437709509
0.03352080683565833
0.03391748437746034
0.03896121268093091
0.03857304864949987
0.03896121268134157
0.04429896811509658
0.04391936861178471
0.04429896811554523
0.04991945328115062
0.049548456014245935
0.04991945328162697
0.05581136811944832
0.05544900015471195
0.05581136811995186
0.06196341057787527
0.06160969033442004
0.06196341057840561
0.06836427709404794
0.06801921585575785
0.06836427709460435
0.07500266294868176
0.0746662660213716
0.07500266294926382
0.08186726252792333
0.08153953013393361
0.08186726252853024
0.08894676952055688
0.0886276974961063
0.08894676952118823
0.0962298770681148
0.09591945741054325
0.09622987706876973
0.10370527788054712
0.10340349917989257
0.10370527788122501
0.11136166432641831
0.11106851210679118
0.11136166432711844
0.11918772850408332
0.11890318549386755
0.11918772850477515
0.127172162298478
0.12689620864380488
0.12717216229913267
0.13530365742718303
0.13503627085970926
0.13530365742779785
0.1435709054787978
0.14331206144635397
0.14357090547937018
0.15196259794625902
0.1517122697131316
0.1519625979467865
0.16046742625640015
0.16022558497489198
0.16046742625688062
0.16907408177885094
0.1688406965259361
0.16907408177928257
0.17777125574764674
0.1775462934406497
0.1777712557480281
0.1865476386989462
0.18633106381753933
0.18654763869927554
0.1953919187338047
0.1951836920355855
0.19539191873408057
0.20429277369388532
0.20409285640897062
0.20429277369410703
0.2132388617582881
0.21304724187066296
0.21323886175845447
0.2222187705642494
0.22203568128644247
0.22221877056436
0.23122117239272005
0.23104689908635528
0.23122117239277418
0.0004119303796504577
0.00041613204741697816
0.00041193037965140593
0.00014730046659775694
0.0001770063136602723
0.00014730046659795022
0.0004119303796543377
0.0004161320474201424
0.0004119303796534981
0.0011879594769108716
0.0012172641248098669
0.0011879594769128464
0.0007955393679379458
0.0008525021826885743
0.000795539367938338
0.0011879594769225654
0.0012172641248201542
0.0011879594769210768
0.0022971854266697943
0.002346639789314114
0.0022971854266723574
0.001871620584534372
0.0019368373910173238
0.001871620584534967
0.0022971854266931025
0.0023466397893355372
0.0022971854266914706
0.0037957806216112103
0.0038542098130837656
0.0037957806216141416
0.003355752004613654
0.0034233827518668535
0.0033557520046144525
0.003795780621650099
0.003854209813120525
0.003795780621648546
0.0056903678557620185
0.005751277369487504
0.005690367855765223
0.0052464881348395775
0.005313458367348703
0.00524648813484058
0.0056903678558206895
0.0057512773695439145
0.005690367855819299
0.007975867791849183
0.008036926415574287
0.007975867791852626
0.007533081126596553
0.007598381029953459
0.00753308112659776
0.007975867791933395
0.008036926415656183
0.007975867791932208
0.01064326674242737
0.010703530387881207
0.010643266742431013
0.010204337874092128
0.010267744903934495
0.010204337874093534
0.010643266742541605
0.01070353038799311
0.010643266742540652
0.013682354640399703
0.013741413869740206
0.013682354640403524
0.013248880766919864
0.013310357176761612
0.013248880766921475
0.013682354640548088
0.013741413869886266
0.013682354640547366
0.017082399902198505
0.017140031769855395
0.017082399902202516
0.016655375457550567
0.016714924616938374
0.01665537545755239
0.017082399902384988
0.017140031770039546
0.017082399902384516
0.02083242776184676
0.020888494310679795
0.020832427761850937
0.020412503221176593
0.020470129174019278
0.020412503221178605
0.02083242776207508
0.020888494310905854
0.020832427762074848
0.02492133313549299
0.024975742443935595
0.02492133313549731
0.024508951854309832
0.02456465640487381
0.024508951854312046
0.02492133313576667
0.02497574244420701
0.024921333135766673
0.029337937076977978
0.02939062590270201
0.029337937076982443
0.028933410551167327
0.02898719418673189
0.02893341055116974
0.0293379370773003
0.029390625903022077
0.029337937077300553
0.03407101655720784
0.034121940354025396
0.034071016557212494
0.033674568701918296
0.0337264315082023
0.03367456870192088
0.03407101655757892
0.03412194035439428
0.0340710165575794
0.03910932122857285
0.039158447959356635
0.03910932122857764
0.038721115659774444
0.03877105763436848
0.03872111565977719
0.0391093212289892
0.03915844795977076
0.039109321228989906
0.044441583210902434
0.04448888937118752
0.04444158321090737
0.044061740744603305
0.04410976187909883
0.044061740744606274
0.044441583211356515
0.044488889371639535
0.04444158321135749
0.05005652301323859
0.05010199104068764
0.05005652301324368
0.049685133263001426
0.04973123355344756
0.049685133263004645
0.0500565230137203
0.05010199104116724
0.05005652301372153
0.055942853236651734
0.05598646979251275
0.055942853236656986
0.05557998251805074
0.0556241619632688
0.05557998251805418
0.05594285323716045
0.05598646979301948
0.05594285323716197
0.062089280962066506
0.06213103576782883
0.06208928096207194
0.061734977812262344
0.06177723641202077
0.061734977812265994
0.06208928096260185
0.062131035768362194
0.06208928096260366
0.0684845093335613
0.06852439436673209
0.06848450933356687
0.06813880844818265
0.06817914620247222
0.06813880844818646
0.06848450933412253
0.06852439436729141
0.06848450933412462
0.07511723863456968
0.07515524756167416
0.07511723863457542
0.07478016372842436
0.07481858063726071
0.07478016372842844
0.07511723863515635
0.07515524756225894
0.07511723863515866
0.08197616703574609
0.08201229480540054
0.08197616703575189
0.08164773295562965
0.0816842290190211
0.0816477329556339
0.08197616703635743
0.08201229480601017
0.08197616703636003
0.08904999112507545
0.0890842336712505
0.08904999112508136
0.08873020543244882
0.08876478065039826
0.08873020543245318
0.089049991125711
0.08908423367188437
0.0890499911257138
0.09632740629044884
0.09635976031295773
0.09632740629045494
0.09601627046153353
0.09604892483404265
0.09601627046153809
0.09632740629110795
0.09635976031361515
0.09632740629111096
0.10379710700034875
0.1038275698003388
0.10379710700035509
0.1034946173455359
0.10352535087260889
0.10349461734554068
0.10379710700103076
0.10382756980101898
0.10379710700103399
0.11144778701294072
0.11147635636813634
0.11144778701294718
0.11115393538711041
0.11118274806875866
0.11115393538711549
0.11144778701364459
0.11147635636883872
0.11144778701364814
0.11926813953408355
0.11929481360313979
0.11926813953409009
0.11898291388892451
0.11900980572516605
0.11898291388892972
0.11926813953477884
0.11929481360383355
0.11926813953478266
0.12724685733830984
0.12727163458671584
0.12724685733831664
0.12697024215368669
0.12699521314448706
0.12697024215369218
0.127246857338968
0.1272716345873726
0.1272468573389721
0.13537263286271706
0.13539551200471336
0.13537263286272389
0.135104609484188
0.13512765962916173
0.13510460948419353
0.13537263286333523
0.13539551200532993
0.13537263286333948
0.14363415828066467
0.14365513823289805
0.14363415828067175
0.14337470518320056
0.14339583448056945
0.14337470518320639
0.1436341582812403
0.14365513823347237
0.14363415828124484
0.15202012555974453
0.15203920540310048
0.1520201255597517
0.15176921855251074
0.1517884269970109
0.1517692185525168
0.15202012556027508
0.15203920540362972
0.15202012556027994
0.16051922650634137
0.16053640545567507
0.16051922650634873
0.16027683888836786
0.16029412647050953
0.16027683888837407
0.16051922650682485
0.16053640545615727
0.16051922650682998
0.16912015279503045
0.16913543018728588
0.1691201527950378
0.16888625546827926
0.1689016222018178
0.16888625546828565
0.16912015279546497
0.16913543018771962
0.16912015279547046
0.17781159599134758
0.17782497137657396
0.17781159599135504
0.17758615751298287
0.1775996035754463
0.1775861575129893
0.1778115959917318
0.17782497137695713
0.1778115959917372
0.18658224756726235
0.1865937211098319
0.1865822475672698
0.18636523416401818
0.18637676056780106
0.18636523416402487
0.18658224756759442
0.186593721110163
0.1865822475676
0.19542079933775405
0.1954303736473676
0.1954207993377613
0.19521217449838152
0.19522178478756555
0.19521217449838807
0.19542079933803244
0.19543037364764498
0.1954207993380382
0.2043159439528371
0.2043236278699697
0.20431594395284447
0.2041156719837463
0.20412337874707315
0.2041156719837528
0.204315943953061
0.20432362787019287
0.20431594395306668
0.21325638670198072
0.2132622103486987
0.21325638670198838
0.21306444698903867
0.2130702847687501
0.21306444698904545
0.2132563867021493