# vtk DataFile Version 2.0
mesh vtk view
ASCII
DATASET UNSTRUCTURED_GRID
POINTS 1025 double
0.0 0.0 0.0
792.9390457289185 -94.42911811446461 -0.0022380640035356285
807.0609542710966 -14.429118114464657 0.002238064214862002
0.0 80.0 0.0
0.0 0.0 80.0
792.9390457289035 -94.42911811447023 80.00223806420942
807.0609542710818 -14.429118114470299 79.99776193600198
0.0 80.0 80.0
19.675224876402538 -0.12622115901222097 -0.18601221209545693
39.350852406605725 -0.34833431816995786 -0.2154678452116038
59.02745672262737 -0.7616158254725217 -0.22202975081082327
78.70572664609136 -1.3430532652276272 -0.2174408437687433
98.39068132779533 -2.0861543327714767 -0.21122648604096878
118.0838297771875 -2.9850092213913104 -0.2049788110157907
137.78574861220298 -4.035104668574834 -0.1988662525037036
157.49655704880124 -5.231988778919626 -0.19281781157648364
177.21627154702938 -6.571229947486092 -0.18678880318574587
196.94488833671545 -8.048384526085766 -0.18076361475280117
216.6824044075173 -9.659005207957229 -0.17473858775217888
236.42881856736145 -11.398643313850192 -0.16871330471818327
256.1841305091976 -13.262849948363014 -0.1626878826580874
275.94834018579996 -15.247176205641965 -0.15666241519849222
295.7214476013677 -17.347173198613895 -0.15063693777080042
315.5034527620297 -19.558392049359142 -0.14461145945390982
335.2943556704167 -21.87638388296526 -0.13858598157556284
355.0941563272716 -24.296699825150117 -0.13256050398852204
374.90285473272695 -26.814891001682916 -0.1265350265050449
394.7204508867827 -29.426508538301487 -0.12050954904646481
414.5469447894268 -32.127103560724116 -0.11448407159081765
434.3823364406535 -34.912227194662286 -0.10845859413406785
454.2266258404603 -37.777430565825895 -0.10243311667588058
474.0798129888444 -40.71826479992436 -0.09640763921693588
493.9418978857978 -43.73028102266449 -0.09038216176411033
513.8128805313816 -46.809030359754765 -0.08435668435146583
533.6927609255998 -49.950063936864424 -0.07833120709130445
553.5815390686187 -53.1489328796219 -0.0723057302215742
573.4792149615863 -56.40118831377529 -0.06628025378491892
593.3857886081964 -59.702381366119035 -0.06025477532273721
613.3012600160337 -63.048063167523374 -0.05422928064158712
633.2256291839108 -66.4337848620682 -0.048203719295665595
653.1588960249302 -69.85509760805986 -0.04217797020848599
673.1010600489218 -73.30755254582334 -0.03615195853302536
693.0521196705605 -76.78669998745994 -0.030126626495159115
713.0120701967929 -80.2880864048866 -0.024109927322479553
732.9809020430356 -83.80722952834473 -0.018135049835628445
752.9585553246199 -87.33959796598731 -0.012354519899318848
772.9447821740389 -90.88062872143873 -0.0067724579152285535
796.476319593246 -74.42584747153498 -4.20093263810371e-05
799.9999999999969 -54.42344124476688 1.0570313879786787e-10
803.5236804067572 -34.42584747152826 4.200953774163405e-05
787.0552178260091 -10.88062872148329 0.006772458119059688
767.0414446754612 -7.339597966076212 0.012354520095579814
747.0190979570788 -3.8072295284776487 0.018135050024347746
726.9879298033547 -0.28808640506304073 0.024109927503632462
706.9478803296211 3.2133000123206017 0.03012662666867759
686.8989399512935 6.6924474539150935 0.03615195869901466
666.8411039753192 10.144902391637629 0.04217797036701434
646.7743708163731 13.566215137589367 0.048203719446626894
626.6987399842849 16.951936832095747 0.05422928078514502
606.6142113921568 20.29761863346301 0.0602547754588419
586.5207850388018 23.59881168577141 0.06628025391365183
566.4184609318044 26.851067119891304 0.0723057303429924
546.3072390748586 30.04993606261722 0.07833120720547031
526.1871194691124 33.19096963969766 0.084356684458535
506.058102114731 36.2697189767812 0.09038216186420202
485.92018701171827 39.28173519953871 0.0964076393101911
465.7733741601362 42.22256943365515 0.10243311676246943
445.61766355997685 45.08777280483733 0.10845859421413673
425.45305521123703 47.872896438794555 0.11448407166452206
405.2795491139148 50.57349146123667 0.12050954911397968
385.09714526800406 53.185108997875275 0.12653502656657586
364.90584367349305 55.70330017442859 0.1325605040442759
344.7056443303814 58.12361611663436 0.13858598162573013
324.4965472388017 60.44160795026183 0.14461145949873155
304.2785523994971 62.65282680102882 0.150636937810498
284.0516598150217 64.75282379403058 0.1566624152333168
263.81586949151347 66.7371500513452 0.1626878826883316
243.5711814332848 68.60135668589648 0.16871330474413646
223.31759559308827 70.34099479182781 0.17473858777414628
203.0551116638491 71.95161547373506 0.1807636147710811
182.7837284534939 73.42877005236774 0.18678880320062718
162.5034429516803 74.76801122096427 0.19281781158828748
142.21425138823676 75.96489533133605 0.19886625251276308
121.91617022321027 77.0149907785433 0.2049788110224415
101.60931867255735 77.91384566718332 0.2112264860455694
81.29427335418659 78.65694673474285 0.21744084377168207
60.97254327757278 79.23838417451039 0.22202975081259088
40.64914759352519 79.65166568182234 0.2154678452127702
20.32477512366541 79.87377884098572 0.18601221209665986
0.0 60.0 0.0
0.0 40.0 0.0
0.0 20.0 0.0
19.675224876401767 -0.12622115901280104 80.18601221209562
39.35085240660418 -0.3483343181707725 80.21546784521213
59.027456722625075 -0.7616158254735121 80.22202975081217
78.70572664608831 -1.3430532652287643 80.21744084377131
98.39068132779154 -2.086154332772757 80.21122648604513
118.08382977718298 -2.985009221392733 80.20497881102192
137.78574861219778 -4.035104668576405 80.19886625251215
157.49655704879535 -5.231988778921346 80.19281781158757
177.21627154702284 -6.571229947487953 80.18678880319983
196.94488833670832 -8.048384526087759 80.1807636147702
216.68240440750955 -9.659005207959373 80.17473858777319
236.42881856735312 -11.398643313852464 80.1687133047431
256.1841305091887 -13.262849948365426 80.16268788268721
275.9483401857905 -15.247176205644509 80.15666241523208
295.72144760135774 -17.34717319861659 80.15063693780911
315.5034527620193 -19.558392049361974 80.14461145949718
335.2943556704058 -21.876383882968288 80.13858598162402
355.0941563272603 -24.296699825153265 80.1325605040424
374.90285473271524 -26.81489100168622 80.12653502656458
394.7204508867706 -29.426508538304937 80.12050954911183
414.54694478941434 -32.12710356072765 80.11448407166225
434.38233644064064 -34.91222719466596 80.10845859421171
454.2266258404472 -37.777430565829704 80.10243311675993
474.079812988831 -40.718264799928335 80.0964076393075
493.94189788578416 -43.73028102266859 80.09038216186133
513.8128805313677 -46.80903035975902 80.08435668445546
533.6927609255857 -49.95006393686886 80.07833120720214
553.5815390686043 -53.14893287962648 80.07230573033942
573.4792149615719 -56.40118831377991 80.06628025390988
593.3857886081818 -59.70238136612384 80.06025477545484
613.3012600160189 -63.04806316752832 80.05422928078092
633.225629183896 -66.43378486207325 80.04820371944226
653.1588960249154 -69.85509760806497 80.04217797036245
673.1010600489069 -73.30755254582856 80.03615195869428
693.0521196705456 -76.78669998746513 80.03012662666386
713.0120701967779 -80.28808640489173 80.02410992749864
732.9809020430207 -83.80722952835009 80.01813505001917
752.9585553246048 -87.33959796599275 80.01235452009018
772.9447821740239 -90.88062872144427 80.00677245811363
796.476319593231 -74.42584747154056 80.00004200953501
799.9999999999819 -54.42344124477252 80.00000000010567
803.5236804067423 -34.425847471533885 79.99995799067634
787.0552178259942 -10.88062872148889 79.99322754209037
767.0414446754463 -7.3395979660817545 79.98764548010634
747.0190979570638 -3.80722952848312 79.98186495017
726.9879298033399 -0.28808640506832717 79.97589007268307
706.947880329606 3.213300012315429 79.96987337351042
686.8989399512786 6.692447453909949 79.96384804147259
666.8411039753045 10.144902391632542 79.95782202979707
646.7743708163583 13.566215137584521 79.95179628070986
626.6987399842702 16.951936832090944 79.9457707193639
606.6142113921421 20.29761863345834 79.93974522468272
586.5207850387873 23.59881168576691 79.93371974622049
566.4184609317902 26.85106711988692 79.92769426978379
546.3072390748445 30.049936062613078 79.92166879291395
526.1871194690985 33.1909696396937 79.91564331565368
506.05810211471737 36.26971897677745 79.9096178382409
485.92018701170485 39.28173519953513 79.90359236078793
465.77337416012307 42.22256943365176 79.8975668833288
445.617663559964 45.08777280483407 79.89154140587044
425.4530552112246 47.87289643879144 79.88551592841355
405.2795491139027 50.57349146123375 79.87949045095773
385.09714526799235 53.185108997872526 79.87346497349898
364.90584367348174 55.70330017442601 79.86743949601532
344.70564433037055 58.12361611663198 79.86141401842812
324.4965472387913 60.44160795025964 79.8553885405496
304.2785523994871 62.652826801026805 79.84936306223251
284.0516598150123 64.75282379402874 79.84333758480464
263.81586949150454 66.73715005134352 79.83731211734487
243.57118143327648 68.60135668589497 79.83128669528456
223.3175955930805 70.34099479182647 79.82526141225033
203.05511166384193 71.95161547373388 79.81923638524948
182.78372845348736 73.42877005236674 79.81321119681631
162.50344295167443 74.76801122096344 79.80718218842534
142.21425138823156 75.9648953313354 79.8011337474979
121.91617022320577 77.01499077854282 79.79502118898557
101.60931867255356 77.91384566718303 79.78877351396017
81.29427335418353 78.65694673474273 79.78255915623214
60.97254327757048 79.23838417451044 79.77797024918969
40.64914759352366 79.65166568182254 79.78453215478837
20.32477512366464 79.87377884098602 79.81398778790378
0.0 60.0 80.0
0.0 40.0 80.0
0.0 20.0 80.0
0.0 0.0 20.0
0.0 0.0 40.0
0.0 0.0 60.0
792.9363794878532 -94.43129737262477 19.998562362387272
792.9357857507358 -94.43218170344441 40.00000000010291
792.9363794878456 -94.43129737262767 60.001437637818604
807.0636205121547 -14.43129737262484 20.001437637824097
807.0642142492644 -14.4321817034444 40.00000000010846
807.0636205121472 -14.431297372627682 59.998562362392775
0.0 80.0 20.0
0.0 80.0 40.0
0.0 80.0 60.0
[...]
POINT_DATA 1025
SCALARS CellEntityIds float 1
LOOKUP_TABLE default
0.0
0.24074425986738604
0.24074425986738907
0.0
0.0
0.24074425986740317
0.24074425986740053
0.0
0.001004192891813903
0.0019514360400759035
0.0031908514725120895
0.004774124164724091
0.006720027353169445
0.009033120859295677
0.011712733297831525
0.014754113334865699
0.018149960145209282
0.021891421461382028
0.02596873743662169
0.030371607228835657
0.03508939873915365
0.04011127023476055
0.04542624329606068
0.051023247976365156
0.056891151593606346
0.06301877756074192
0.06939491798467823
0.07600834227096114
0.08284780311215043
0.08990204072813242
0.0971597859169771
0.10460976228269571
0.11224068788449405
0.12004127647358906
0.1280002384319222
0.13610628149301462
0.14434811130194042
0.152714431856604
0.16119394586368405
0.16977535504461094
0.1784473603832527
0.1871986623018334
0.19601795890464727
0.20489393887711976
0.2138152187538368
0.22277030038753623
0.2317476403859368
0.2402328076846061
0.24005959638484575
0.2402328076846063
0.23174764038605278
0.22277030038776477
0.21381521875417708
0.2048939388775705
0.1960179589052072
0.1871986623025002
0.17844736038402348
0.16977535504548305
0.1611939458646537
0.1527144318576677
0.1443481113030938
0.136106281494253
0.12800023843324063
0.12004127647498156
0.11224068788590369
0.1046097622840614
0.09715978591829728
0.08990204072940562
0.08284780311337543
0.0760083422721368
0.06939491798580319
0.06301877756181495
0.05689115159462647
0.051023247977331224
0.04542624329697172
0.04011127023559618
0.03508939873989906
0.030371607229483844
0.02596873743717294
0.021891421461842926
0.018149960145586903
0.014754113335167525
0.011712733298065398
0.009033120859469897
0.0067200273532929235
0.004774124164808187
0.0031908514725647024
0.0019514360401042515
0.0010041928918256926
0.0
0.0
0.0
0.001004192891816179
0.0019514360400805235
0.0031908514725187513
0.0047741241647322715
0.006720027353178736
0.009033120859305802
0.011712733297842311
0.01475411333487703
0.01814996014522104
0.02189142146139414
0.02596873743663416
0.03037160722884839
0.03508939873916666
0.040111270234773795
0.0454262432960742
0.051023247976378895
0.056891151593620445
0.06301877756075619
0.06939491798469274
0.07600834227097587
0.08284780311216525
0.08990204072814742
0.0971597859169923
0.10460976228271114
0.11224068788450964
0.12004127647360487
0.1280002384319383
0.13610628149303095
0.14434811130195666
0.15271443185662056
0.1611939458637008
0.16977535504462785
0.17844736038326955
0.18719866230185037
0.19601795890466397
0.20489393887713617
0.21381521875385368
0.22277030038755313
0.2317476403859538
0.2402328076846217
0.24005959638486007
0.24023280768461922
0.23174764038606402
0.2227703003877757
0.21381521875418769
0.20489393887758045
0.19601795890521673
0.18719866230250948
0.17844736038403244
0.16977535504549118
0.16119394586466157
0.15271443185767508
0.14434811130310052
0.13610628149425927
0.1280002384332461
0.12004127647498643
0.11224068788590782
0.10460976228406492
0.09715978591830016
0.08990204072940798
0.08284780311337722
0.07600834227213793
0.06939491798580372
0.06301877756181487
0.056891151594625704
0.05102324797732984
0.045426243296969745
0.040111270235593556
0.03508939873989591
0.030371607229480138
0.025968737437168685
0.02189142146183818
0.018149960145581633
0.014754113335161814
0.011712733298059313
0.009033120859463539
0.006720027353286474
0.004774124164801921
0.00319085147255906
0.0019514360400998993
0.0010041928918233093
0.0
0.0
0.0
0.0
0.0
0.0
0.24075029043204435
0.24075264504170085
0.2407502904320531
0.240750290432046
0.24075264504170088
0.2407502904320518
0.0
0.0
0.0
0.0004661657966493285
6.808433831272397e-06
0.00046616579665365965
0.0011017529047283568
0.0006105713702751013
0.0011017529047410936
0.0021424489746915227
0.0016692950741433352
0.002142448974716591
0.0036179754543687226
0.0031523231060390992
0.0036179754544098048
0.0055063299306217705
0.00504725525407859
0.0055063299306828285
0.0077917928842678895
0.007339360313829196
0.007791792884354567
0.010461600765407666
0.010016356182338289
0.010461600765524406
0.013504293357733496
0.013066628011189862
0.01350429335788442
0.016908626609062866
0.016478830573736794
0.01690862660925187
0.020663372520631766
0.02024165641076346
0.020663372520862613
0.02475727925116046
0.02434380036365136
0.02475727925143664
0.029179076988252842
0.028773953872471725
0.029179076988577697
0.033917484377085826
0.03352080683565313
0.03391748437745941
0.03896121268092137
0.03857304864949431
0.03896121268134015
0.044298968115086754
0.04391936861177873
0.04429896811554329
0.0499194532811404
0.04954845601423955
0.049919453281624476
0.05581136811943776
0.0554490001547051
0.05581136811994883
0.061963410577864426
0.06160969033441279
0.06196341057840205
0.06836427709403675
0.06801921585575012
0.06836427709460025
0.0750026629486703
0.07466626602136356
0.07500266294925924
0.08186726252791161
0.08153953013392516
0.08186726252852518
0.08894676952054495
0.0886276974960974
0.08894676952118268
0.09622987706810258
0.09591945741053418
0.09622987706876376
0.10370527788053452
0.10340349917988298
0.10370527788121853
0.11136166432640544
0.11106851210678119
0.11136166432711139
0.11918772850407025
0.11890318549385703
0.11918772850476748
0.1271721622984645
0.12689620864379403
0.12717216229912448
0.1353036574271692
0.13503627085969797
0.13530365742778902
0.14357090547878382
0.14331206144634237
0.14357090547936102
0.15196259794624467
0.15171226971311944
0.1519625979467767
0.16046742625638558
0.16022558497487946
0.1604674262568704
0.16907408177883607
0.16884069652592332
0.16907408177927213
0.17777125574763175
0.1775462934406367
0.17777125574801705
0.18654763869893118
0.18633106381752612
0.18654763869926438
0.1953919187337899
0.19518369203557243
0.19539191873406925
0.20429277369387047
0.20409285640895727
0.20429277369409538
0.21323886175827303
0.2130472418706493
0.21323886175844223
0.22221877056423409
0.22203568128642856
0.22221877056434752
0.23122117239270437
0.23104689908634124
0.2312211723927616
0.000907138540388485
0.0009223120334594775
0.0009071385403896857
0.001971419598647954
0.001979255009986332
0.001971419598650335
0.003282657875249633
0.0033126709005096167
0.0032826578752529673
0.0049045940231650575
0.004946432813073096
0.00490459402316912
0.006869139591558921
0.00691745923199804
0.006869139591563539
0.009191529245536666
0.009242950258076761
0.00919152924554171
0.011875405149370681
0.011928228091400803
0.011875405149376054
0.014918012099910795
0.014971241935413748
0.014918012099916436
0.01831309997798863
0.018366101176146815
0.018313099977994497
0.02205245624875414
0.022104795537025677
0.02205245624876021
0.026126732667677028
0.026178106041739636
0.02612673266768322
0.030525900995849398
0.030576090692847013
0.03052590099585578
0.03523951302167955
0.03528836029879559
0.03523951302168607
0.04025685343165838
0.040304240594831786
0.04025685343166502
0.045567032396304996
0.045612870784692096
0.04556703239631174
0.05115904321527464
0.05120326504910002
0.05115904321528151
0.05702179914654387
0.05706435190989594
0.05702179914655089
0.06314415750373722
0.06318500000884314
0.06314415750374436
0.06951493577224933
0.06955403535667956
0.06951493577225652
0.07612292260658989
0.0761602531064765
0.07612292260659723
0.08295688547471365
0.08299242573822302
0.082956885474721
0.09000557606276949
0.09003930884547624
0.09000557606277697
0.09725773415683822
0.09728964529091268
0.09725773415684587
0.10470209047163637
0.10473216823394695
0.10470209047164408
0.11232736873990234
0.11235560336639998
0.11232736873991021
0.12012228727535451
0.1201486705842672
0.12012228727536242
0.12807556015574686
0.12810008525257735
0.12807556015575497
0.13617589812868022
0.1361985591732903
0.13617589812868836
0.14441200931279383
0.1444328013338093
0.144412009312802
0.15277259974648033
0.1527915184915005
0.15277259974648866
0.16124637382163068
0.16126341563234187
0.16124637382163903
0.16982203462951231
0.16983719633764552
0.16982203462952056
0.17848828421920723
0.17850156306799617
0.17848828421921573
0.18723382380441692
0.1872452176296525
0.18723382380442516
0.19604735334682863
0.19605686161932012
0.19604735334683687
0.204917570858196
0.20492520016172625
0.20491757085820436
0.21383315239223666
0.2138389276891899
0.21383315239224512
0.22278278890601255
0.22278678990819856
0.22278278890602102
0.2317554065218708
0.23175810263210778
0.23175540652187937
0.2402384126962702
0.2402413339426246
0.24023841269627833
0.24006470886177983
0.24006804123148362
0.24006470886178718
0.24023841269626983
0.24024133394262356
0.24023841269627655
0.23175540652198534
0.23175810263222069
0.23175540652199092
0.22278278890623932
0.22278678990842396
0.22278278890624492
0.21383315239257528
0.2138389276895268
0.21383315239258047
0.20491757085864507
0.20492520016217375
0.20491757085864998
0.1960473533473863
0.19605686161987596
0.19604735334739115
0.1872338238050813
0.18724521763031501
0.18723382380508585
0.17848828421997578
0.17850156306876264
0.17848828421998025
0.16982203463038156
0.16983719633851274
0.16982203463038595
0.16124637382259752
0.16126341563330637
0.16124637382260157
0.15277259974754098
0.15279151849255865
0.1527725997475447
0.14441200931394393
0.14443280133495684
0.14441200931394724
0.1361758981299153
0.13619855917452242
0.13617589812991832
0.12807556015706165
0.12810008525388916
0.12807556015706442
0.12012228727674343
0.12014867058565296
0.12012228727674577
0.11232736874130811
0.11235560336780258
0.11232736874131019
0.1047020904729981
0.10473216823530529
0.10470209047299983
0.09725773415815436
0.09728964529222539
0.09725773415815586
0.09000557606403857
0.09003930884674191
0.09000557606403978
0.08295688547593441
0.0829924257394403
0.08295688547593533
0.07612292260776114
0.07616025310764421
0.0761229226077617
0.06951493577336983
0.06955403535779632
0.06951493577337017
0.0631441575048058
0.06318500000990786
0.06314415750480581
0.05702179914755945
0.057064351910907564
0.057021799147559116
0.05115904321623609
0.05120326505005743
0.051159043216235434
0.04556703239721138
0.04561287078559441
0.04556703239721043
0.04025685343248933
0.04030424059565853
0.04025685343248808
0.035239513022420246
0.03528836029953202
0.03523951302241871
0.03052590099649293
0.030576090693486255
0.030525900996491145
0.026126732668223653
0.026178106042282014
0.026126732668221624
0.0220524562492105
0.022104795537477774
0.022052456249208218
0.018313099978361804
0.018366101176515742
0.018313099978359296
0.014918012100208315
0.014971241935707088
0.014918012100205585
0.011875405149600476
0.011928228091626532
0.011875405149597581
0.00919152924570712
0.009242950258243331
0.009191529245704112
0.006869139591679083
0.0069174592321146295
0.006869139591676059
0.00490459402324659
0.0049464328131515346
0.004904594023243685
0.003282657875300819
0.0033126709005583733
0.0032826578752982428
0.0019714195986760305
0.001979255010012592
0.0019714195986740646
0.0009071385403997302
0.0009223120334696138
0.0009071385403987248
0.0
0.0
0.0
0.0
0.0
0.0
0.0
0.0
0.0
0.0004661657966513645
6.8084338316744435e-06
0.000466165796651392
0.0011017529047325496
0.0006105713702758861
0.0011017529047374986
0.002142448974696875
0.001669295074144522
0.002142448974712871
0.0036179754543747534
0.003152323106040694
0.0036179754544063795
0.005506329930628304
0.005047255254080587
0.005506329930679825
0.007791792884274847
0.007339360313831605
0.00779179288435203
0.01046160076541501
0.010016356182341115
0.010461600765522362
0.013504293357741223
0.0130666280111931
0.01350429335788288
0.016908626609070908
0.016478830573740423
0.016908626609250826
0.020663372520640128
0.020241656410767497
0.020663372520862085
0.024757279251169134
0.0243438003636558
0.0247572792514366
0.029179076988261835
0.02877395387247654
0.02917907698857815
0.03391748437709509
0.03352080683565833
0.03391748437746034
0.03896121268093091
0.03857304864949987
0.03896121268134157
0.04429896811509658
0.04391936861178471
0.04429896811554523
0.04991945328115062
0.049548456014245935
0.04991945328162697
0.05581136811944832
0.05544900015471195
0.05581136811995186
0.06196341057787527
0.06160969033442004
0.06196341057840561
0.06836427709404794
0.06801921585575785
0.06836427709460435
0.07500266294868176
0.0746662660213716
0.07500266294926382
0.08186726252792333
0.08153953013393361
0.08186726252853024
0.08894676952055688
0.0886276974961063
0.08894676952118823
0.0962298770681148
0.09591945741054325
0.09622987706876973
0.10370527788054712
0.10340349917989257
0.10370527788122501
0.11136166432641831
0.11106851210679118
0.11136166432711844
0.11918772850408332
0.11890318549386755
0.11918772850477515
0.127172162298478
0.12689620864380488
0.12717216229913267
0.13530365742718303
0.13503627085970926
0.13530365742779785
0.1435709054787978
0.14331206144635397
0.14357090547937018
0.15196259794625902
0.1517122697131316
0.1519625979467865
0.16046742625640015
0.16022558497489198
0.16046742625688062
0.16907408177885094
0.1688406965259361
0.16907408177928257
0.17777125574764674
0.1775462934406497
0.1777712557480281
0.1865476386989462
0.18633106381753933
0.18654763869927554
0.1953919187338047
0.1951836920355855
0.19539191873408057
0.20429277369388532
0.20409285640897062
0.20429277369410703
0.2132388617582881
0.21304724187066296
0.21323886175845447
0.2222187705642494
0.22203568128644247
0.22221877056436
0.23122117239272005
0.23104689908635528
0.23122117239277418
0.0004119303796504577
0.00041613204741697816
0.00041193037965140593
0.00014730046659775694
0.0001770063136602723
0.00014730046659795022
0.0004119303796543377
0.0004161320474201424
0.0004119303796534981
0.0011879594769108716
0.0012172641248098669
0.0011879594769128464
0.0007955393679379458
0.0008525021826885743
0.000795539367938338
0.0011879594769225654
0.0012172641248201542
0.0011879594769210768
0.0022971854266697943
0.002346639789314114
0.0022971854266723574
0.001871620584534372
0.0019368373910173238
0.001871620584534967
0.0022971854266931025
0.0023466397893355372
0.0022971854266914706
0.0037957806216112103
0.0038542098130837656
0.0037957806216141416
0.003355752004613654
0.0034233827518668535
0.0033557520046144525
0.003795780621650099
0.003854209813120525
0.003795780621648546
0.0056903678557620185
0.005751277369487504
0.005690367855765223
0.0052464881348395775
0.005313458367348703
0.00524648813484058
0.0056903678558206895
0.0057512773695439145
0.005690367855819299
0.007975867791849183
0.008036926415574287
0.007975867791852626
0.007533081126596553
0.007598381029953459
0.00753308112659776
0.007975867791933395
0.008036926415656183
0.007975867791932208
0.01064326674242737
0.010703530387881207
0.010643266742431013
0.010204337874092128
0.010267744903934495
0.010204337874093534
0.010643266742541605
0.01070353038799311
0.010643266742540652
0.013682354640399703
0.013741413869740206
0.013682354640403524
0.013248880766919864
0.013310357176761612
0.013248880766921475
0.013682354640548088
0.013741413869886266
0.013682354640547366
0.017082399902198505
0.017140031769855395
0.017082399902202516
0.016655375457550567
0.016714924616938374
0.01665537545755239
0.017082399902384988
0.017140031770039546
0.017082399902384516
0.02083242776184676
0.020888494310679795
0.020832427761850937
0.020412503221176593
0.020470129174019278
0.020412503221178605
0.02083242776207508
0.020888494310905854
0.020832427762074848
0.02492133313549299
0.024975742443935595
0.02492133313549731
0.024508951854309832
0.02456465640487381
0.024508951854312046
0.02492133313576667
0.02497574244420701
0.024921333135766673
0.029337937076977978
0.02939062590270201
0.029337937076982443
0.028933410551167327
0.02898719418673189
0.02893341055116974
0.0293379370773003
0.029390625903022077
0.029337937077300553
0.03407101655720784
0.034121940354025396
0.034071016557212494
0.033674568701918296
0.0337264315082023
0.03367456870192088
0.03407101655757892
0.03412194035439428
0.0340710165575794
0.03910932122857285
0.039158447959356635
0.03910932122857764
0.038721115659774444
0.03877105763436848
0.03872111565977719
0.0391093212289892
0.03915844795977076
0.039109321228989906
0.044441583210902434
0.04448888937118752
0.04444158321090737
0.044061740744603305
0.04410976187909883
0.044061740744606274
0.044441583211356515
0.044488889371639535
0.04444158321135749
0.05005652301323859
0.05010199104068764
0.05005652301324368
0.049685133263001426
0.04973123355344756
0.049685133263004645
0.0500565230137203
0.05010199104116724
0.05005652301372153
0.055942853236651734
0.05598646979251275
0.055942853236656986
0.05557998251805074
0.0556241619632688
0.05557998251805418
0.05594285323716045
0.05598646979301948
0.05594285323716197
0.062089280962066506
0.06213103576782883
0.06208928096207194
0.061734977812262344
0.06177723641202077
0.061734977812265994
0.06208928096260185
0.062131035768362194
0.06208928096260366
0.0684845093335613
0.06852439436673209
0.06848450933356687
0.06813880844818265
0.06817914620247222
0.06813880844818646
0.06848450933412253
0.06852439436729141
0.06848450933412462
0.07511723863456968
0.07515524756167416
0.07511723863457542
0.07478016372842436
0.07481858063726071
0.07478016372842844
0.07511723863515635
0.07515524756225894
0.07511723863515866
0.08197616703574609
0.08201229480540054
0.08197616703575189
0.08164773295562965
0.0816842290190211
0.0816477329556339
0.08197616703635743
0.08201229480601017
0.08197616703636003
0.08904999112507545
0.0890842336712505
0.08904999112508136
0.08873020543244882
0.08876478065039826
0.08873020543245318
0.089049991125711
0.08908423367188437
0.0890499911257138
0.09632740629044884
0.09635976031295773
0.09632740629045494
0.09601627046153353
0.09604892483404265
0.09601627046153809
0.09632740629110795
0.09635976031361515
0.09632740629111096
0.10379710700034875
0.1038275698003388
0.10379710700035509
0.1034946173455359
0.10352535087260889
0.10349461734554068
0.10379710700103076
0.10382756980101898
0.10379710700103399
0.11144778701294072
0.11147635636813634
0.11144778701294718
0.11115393538711041
0.11118274806875866
0.11115393538711549
0.11144778701364459
0.11147635636883872
0.11144778701364814
0.11926813953408355
0.11929481360313979
0.11926813953409009
0.11898291388892451
0.11900980572516605
0.11898291388892972
0.11926813953477884
0.11929481360383355
0.11926813953478266
0.12724685733830984
0.12727163458671584
0.12724685733831664
0.12697024215368669
0.12699521314448706
0.12697024215369218
0.127246857338968
0.1272716345873726
0.1272468573389721
0.13537263286271706
0.13539551200471336
0.13537263286272389
0.135104609484188
0.13512765962916173
0.13510460948419353
0.13537263286333523
0.13539551200532993
0.13537263286333948
0.14363415828066467
0.14365513823289805
0.14363415828067175
0.14337470518320056
0.14339583448056945
0.14337470518320639
0.1436341582812403
0.14365513823347237
0.14363415828124484
0.15202012555974453
0.15203920540310048
0.1520201255597517
0.15176921855251074
0.1517884269970109
0.1517692185525168
0.15202012556027508
0.15203920540362972
0.15202012556027994
0.16051922650634137
0.16053640545567507
0.16051922650634873
0.16027683888836786
0.16029412647050953
0.16027683888837407
0.16051922650682485
0.16053640545615727
0.16051922650682998
0.16912015279503045
0.16913543018728588
0.1691201527950378
0.16888625546827926
0.1689016222018178
0.16888625546828565
0.16912015279546497
0.16913543018771962
0.16912015279547046
0.17781159599134758
0.17782497137657396
0.17781159599135504
0.17758615751298287
0.1775996035754463
0.1775861575129893
0.1778115959917318
0.17782497137695713
0.1778115959917372
0.18658224756726235
0.1865937211098319
0.1865822475672698
0.18636523416401818
0.18637676056780106
0.18636523416402487
0.18658224756759442
0.186593721110163
0.1865822475676
0.19542079933775405
0.1954303736473676
0.1954207993377613
0.19521217449838152
0.19522178478756555
0.19521217449838807
0.19542079933803244
0.19543037364764498
0.1954207993380382
0.2043159439528371
0.2043236278699697
0.20431594395284447
0.2041156719837463
0.20412337874707315
0.2041156719837528
0.204315943953061
0.20432362787019287
0.20431594395306668
0.21325638670198072
0.2132622103486987
0.21325638670198838
0.21306444698903867
0.2130702847687501
0.21306444698904545
0.2132563867021493