# vtk DataFile Version 2.0
mesh vtk view
ASCII
DATASET UNSTRUCTURED_GRID
POINTS 1025 double
0.0 0.0 0.0
793.5374316840948 -86.42665047764555 -0.0020483975625580327
806.462568315919 -6.426650477645609 0.002048397755975391
0.0 80.0 0.0
0.0 0.0 80.0
793.5374316840811 -86.4266504776507 80.002048397751
806.4625683159054 -6.426650477650767 79.99795160244248
0.0 80.0 80.0
19.70274819195501 -0.11552445062135477 -0.17024846530770632
39.405864914506765 -0.31881446069792746 -0.19720785832926446
59.10987564441835 -0.6970721114494265 -0.20321367023363482
78.81541082859994 -1.2292351919032518 -0.19901365361884976
98.52706426608569 -1.9093615927060967 -0.19332593637647988
118.24621708416488 -2.7320423382225547 -0.18760772533648637
137.97339703484823 -3.6931466458142546 -0.182013180257627
157.708713231048 -4.788599899350165 -0.17647731907000194
177.45218073789206 -6.014346053631337 -0.1709592435937335
197.20379610471463 -7.366318040824258 -0.16544466435002136
216.96355657628717 -8.84044544457102 -0.1599302328579264
236.73146106155943 -10.432656592337462 -0.1544155670302016
256.50750927950446 -12.138879613755975 -0.14890077395824947
276.2917011869004 -13.955042628892643 -0.14338593933421317
296.0840367875868 -15.877073775002547 -0.13787109558683427
315.884516087173 -17.900901197718532 -0.13235625102561235
335.69313908806674 -20.022453045425827 -0.12684140686576936
355.50990579094815 -22.237657467086542 -0.12132656297254556
375.33481619593846 -24.542442611709784 -0.11581171917410885
395.1678703030375 -26.932736628275933 -0.1102968753984593
415.0090681122344 -29.404467665747486 -0.1047820316254941
434.85840962352387 -31.953563873080732 -0.0992671878515197
454.7158948369036 -34.57595339923047 -0.09375234407622966
474.581523752371 -37.267564393151105 -0.08823750030024638
494.45529636991887 -40.02432500379461 -0.08272265652986369
514.3372126896094 -42.84216338011452 -0.07720781279625684
534.2272727114455 -45.71700767102845 -0.07169296920221084
554.1254764355737 -48.64478602541665 -0.06617812596550858
574.0318238630448 -51.621426592268904 -0.060663283125180024
593.9463149972396 -54.64285752153267 -0.05514843843097981
613.8689498450999 -57.70500696688578 -0.04963357889230007
633.7997284055391 -60.803803094096295 -0.044118658338405795
653.7386505990238 -63.93517408195308 -0.03860356595352954
673.6857159769237 -67.09504809278745 -0.033088233233616426
693.6409230882633 -70.27935253089552 -0.02757352255489139
713.6042676377056 -73.4840112858284 -0.022066713142608402
733.57574085292 -76.70492194119686 -0.016598181205490437
753.5552879242098 -79.9379371214121 -0.011307526687512164
773.542681989789 -83.17888052470661 -0.006198520803768506
796.7749365768692 -66.4236570078487 -3.8449213975864456e-05
799.9999999999972 -46.42145469860533 9.674524567940448e-11
803.2250634231337 -26.42365700784198 3.844940742454641e-05
786.4573180102576 -3.178880524747399 0.006198520990325814
766.44471207587 0.0620628785065378 0.011307526867140844
746.424259147193 3.295078058681497 0.016598181378216576
726.3957323624406 6.515988714010106 0.02206671330840937
706.3590769119168 9.720647468903607 0.027573522713704907
686.3142840232902 12.904951906973153 0.03308823338553883
666.2613494012239 16.064825917770044 0.03860356609862328
646.2002715947428 19.196196905590277 0.04411865847657376
626.1310501552166 22.29499303276561 0.049633579023692045
606.0536850031114 25.357142478084803 0.0551484385555502
585.9681761373408 28.378573407316217 0.06066328324300336
565.8745235648469 31.35521397413782 0.0661781260766371
545.7727272890102 34.28299232849712 0.07169296930670163
525.6627873108816 37.15783661938431 0.07720781289425237
505.54470363060676 39.97567499569806 0.08272265662147302
485.41847624818837 42.73243560635747 0.08823750038559862
465.2841051636895 45.42404660029456 0.09375234415548048
445.14159037710294 48.04643612646129 0.09926718792480309
424.99093188842585 50.595532333811974 0.10478203169295237
404.83212969765634 53.067263371301365 0.11029687546025256
384.66518380478885 55.45755738788585 0.11581171923042534
364.4900942098127 57.76234253252787 0.12132656302357454
344.3068609127275 59.977546954207725 0.1268414069116852
324.11548391365454 62.09909880193456 0.13235625106663562
303.915963213274 64.12292622467045 0.13787109562316766
283.7082988139173 66.04495737080764 0.14338593936608654
263.4924907212028 67.86112038597696 0.14890077398593057
243.26853893908316 69.56734340743068 0.15441556705395537
223.03644342431497 71.15955455523223 0.15993023287803215
202.79620389584673 72.63368195901175 0.16544466436675215
182.54781926262822 73.98565394623488 0.17095924360735365
162.29128676943085 75.21140010054357 0.17647731908080547
142.02660296558915 76.30685335410418 0.18201318026591873
121.75378291623082 77.26795766171759 0.18760772534257353
101.47293573426525 78.09063840725254 0.1933259363806906
81.18458917167656 78.77076480806973 0.1990136536215395
60.890124355780706 79.30292788853492 0.20321367023525264
40.594135085623414 79.68118553929502 0.19720785833033203
20.297251808112588 79.88447554937676 0.1702484653088073
0.0 60.0 0.0
0.0 40.0 0.0
0.0 20.0 0.0
19.702748191954303 -0.11552445062188568 80.17024846530785
39.40586491450536 -0.3188144606986731 80.19720785832975
59.10987564441624 -0.697072111450333 80.20321367023487
78.81541082859715 -1.2292351919042925 80.1990136536212
98.52706426608222 -1.909361592707269 80.19332593638029
118.24621708416075 -2.7320423382238563 80.18760772534209
137.97339703484346 -3.693146645815692 80.18201318026536
157.7087132310426 -4.78859989935174 80.17647731908015
177.4521807378861 -6.01434605363304 80.17095924360662
197.2037961047081 -7.3663180408260835 80.16544466436595
216.96355657628007 -8.840445444572984 80.15993023287716
236.7314610615518 -10.43265659233954 80.15441556705301
256.50750927949633 -12.138879613758185 80.14890077398489
276.2917011868918 -13.95504262889497 80.14338593936495
296.0840367875777 -15.877073775005012 80.13787109562189
315.8845160871635 -17.900901197721126 80.13235625106522
335.6931390880568 -20.0224530454286 80.12684140691012
355.5099057909378 -22.237657467089424 80.12132656302187
375.3348161959277 -24.542442611712804 80.1158117192286
395.1678703030264 -26.93273662827909 80.11029687545829
415.009068112223 -29.404467665750726 80.10478203169086
434.85840962351216 -31.953563873084093 80.09926718792258
454.7158948368916 -34.57595339923396 80.09375234415316
474.58152375235875 -37.267564393154736 80.08823750038314
494.45529636990636 -40.02432500379836 80.08272265661884
514.3372126895966 -42.842163380118414 80.07720781289143
534.2272727114325 -45.717007671032505 80.07169296930365
554.1254764355606 -48.644786025420835 80.06617812607337
574.0318238630316 -51.62142659227313 80.06066328323955
593.9463149972262 -54.64285752153706 80.05514843855188
613.8689498450865 -57.70500696689031 80.04963357901981
633.7997284055256 -60.80380309410093 80.04411865847257
653.7386505990103 -63.935174081957754 80.03860356609444
673.68571597691 -67.09504809279223 80.0330882333812
693.6409230882497 -70.27935253090027 80.02757352270929
713.6042676376919 -73.48401128583309 80.02206671330384
733.5757408529064 -76.70492194120176 80.01659818137348
753.555287924196 -79.93793712141708 80.0113075268622
773.5426819897752 -83.17888052471169 80.00619852098535
796.7749365768556 -66.42365700785382 80.00003844940493
799.9999999999834 -46.42145469861049 80.00000000009672
803.2250634231201 -26.423657007847126 79.99996155078851
786.457318010244 -3.178880524752529 79.99380147920135
766.4447120758563 0.062062878501464525 79.98869247331767
746.4242591471792 3.2950780586764807 79.98340181879966
726.395732362427 6.515988714005275 79.97793328686247
706.3590769119031 9.720647468898875 79.97242647745023
686.3142840232765 12.904951906968435 79.96691176677153
666.2613494012104 16.064825917765383 79.96139643405155
646.2002715947294 19.19619690558585 79.95588134166665
626.1310501552032 22.29499303276122 79.95036642111273
606.053685003098 25.357142478080526 79.94485156157401
585.9681761373276 28.378573407312103 79.93933671687978
565.8745235648338 31.355213974133797 79.9338218740394
545.7727272889972 34.282992328493336 79.92830703080259
525.6627873108689 37.15783661938068 79.92279218720844
505.5447036305943 39.975674995694625 79.91727734347472
485.4184762481761 42.73243560635419 79.91176249970421
465.2841051636775 45.424046600291454 79.90624765592807
445.14159037709123 48.0464361264583 79.90073281215261
424.9909318884144 50.59553233380912 79.8952179683785
404.83212969764526 53.067263371298694 79.88970312460538
384.66518380477817 55.457557387883334 79.88418828082958
364.49009420980235 57.76234253252551 79.87867343703098
344.3068609127175 59.97754695420555 79.8731585931376
324.115483913645 62.099098801932556 79.8676437489776
303.91596321326494 64.1229262246686 79.8621289044162
283.70829881390864 66.04495737080597 79.85661406066866
263.49249072119466 67.86112038597543 79.85109922604445
243.26853893907554 69.5673434074293 79.84558443297232
223.03644342430786 71.15955455523101 79.84006976714437
202.79620389584016 72.63368195901067 79.83455533565207
182.54781926262226 73.98565394623397 79.82904075640815
162.29128676942548 75.21140010054282 79.82352268093167
142.02660296558437 76.3068533541036 79.81798681974384
121.7537829162267 77.26795766171716 79.81239227466476
101.47293573426177 78.09063840725227 79.80667406362456
81.18458917167378 78.77076480806961 79.80098634638196
60.8901243557786 79.30292788853498 79.79678632976683
40.59413508562201 79.6811855392952 79.80279214167071
20.297251808111884 79.88447554937703 79.8297515346916
0.0 60.0 80.0
0.0 40.0 80.0
0.0 20.0 80.0
0.0 0.0 20.0
0.0 0.0 40.0
0.0 0.0 60.0
793.5349913956621 -86.42864505291078 19.998684196083264
793.5344479752497 -86.42945444044062 40.00000000009419
793.5349913956552 -86.42864505291344 60.00131580410517
806.4650086043449 -6.428645052910852 20.00131580411019
806.4655520247505 -6.429454440440622 40.00000000009926
806.4650086043381 -6.428645052913453 59.998684196088305
0.0 80.0 20.0
0.0 80.0 40.0
0.0 80.0 60.0
[...]
POINT_DATA 1025
SCALARS CellEntityIds float 1
LOOKUP_TABLE default
0.0
0.24074425986738604
0.24074425986738907
0.0
0.0
0.24074425986740317
0.24074425986740053
0.0
0.001004192891813903
0.0019514360400759035
0.0031908514725120895
0.004774124164724091
0.006720027353169445
0.009033120859295677
0.011712733297831525
0.014754113334865699
0.018149960145209282
0.021891421461382028
0.02596873743662169
0.030371607228835657
0.03508939873915365
0.04011127023476055
0.04542624329606068
0.051023247976365156
0.056891151593606346
0.06301877756074192
0.06939491798467823
0.07600834227096114
0.08284780311215043
0.08990204072813242
0.0971597859169771
0.10460976228269571
0.11224068788449405
0.12004127647358906
0.1280002384319222
0.13610628149301462
0.14434811130194042
0.152714431856604
0.16119394586368405
0.16977535504461094
0.1784473603832527
0.1871986623018334
0.19601795890464727
0.20489393887711976
0.2138152187538368
0.22277030038753623
0.2317476403859368
0.2402328076846061
0.24005959638484575
0.2402328076846063
0.23174764038605278
0.22277030038776477
0.21381521875417708
0.2048939388775705
0.1960179589052072
0.1871986623025002
0.17844736038402348
0.16977535504548305
0.1611939458646537
0.1527144318576677
0.1443481113030938
0.136106281494253
0.12800023843324063
0.12004127647498156
0.11224068788590369
0.1046097622840614
0.09715978591829728
0.08990204072940562
0.08284780311337543
0.0760083422721368
0.06939491798580319
0.06301877756181495
0.05689115159462647
0.051023247977331224
0.04542624329697172
0.04011127023559618
0.03508939873989906
0.030371607229483844
0.02596873743717294
0.021891421461842926
0.018149960145586903
0.014754113335167525
0.011712733298065398
0.009033120859469897
0.0067200273532929235
0.004774124164808187
0.0031908514725647024
0.0019514360401042515
0.0010041928918256926
0.0
0.0
0.0
0.001004192891816179
0.0019514360400805235
0.0031908514725187513
0.0047741241647322715
0.006720027353178736
0.009033120859305802
0.011712733297842311
0.01475411333487703
0.01814996014522104
0.02189142146139414
0.02596873743663416
0.03037160722884839
0.03508939873916666
0.040111270234773795
0.0454262432960742
0.051023247976378895
0.056891151593620445
0.06301877756075619
0.06939491798469274
0.07600834227097587
0.08284780311216525
0.08990204072814742
0.0971597859169923
0.10460976228271114
0.11224068788450964
0.12004127647360487
0.1280002384319383
0.13610628149303095
0.14434811130195666
0.15271443185662056
0.1611939458637008
0.16977535504462785
0.17844736038326955
0.18719866230185037
0.19601795890466397
0.20489393887713617
0.21381521875385368
0.22277030038755313
0.2317476403859538
0.2402328076846217
0.24005959638486007
0.24023280768461922
0.23174764038606402
0.2227703003877757
0.21381521875418769
0.20489393887758045
0.19601795890521673
0.18719866230250948
0.17844736038403244
0.16977535504549118
0.16119394586466157
0.15271443185767508
0.14434811130310052
0.13610628149425927
0.1280002384332461
0.12004127647498643
0.11224068788590782
0.10460976228406492
0.09715978591830016
0.08990204072940798
0.08284780311337722
0.07600834227213793
0.06939491798580372
0.06301877756181487
0.056891151594625704
0.05102324797732984
0.045426243296969745
0.040111270235593556
0.03508939873989591
0.030371607229480138
0.025968737437168685
0.02189142146183818
0.018149960145581633
0.014754113335161814
0.011712733298059313
0.009033120859463539
0.006720027353286474
0.004774124164801921
0.00319085147255906
0.0019514360400998993
0.0010041928918233093
0.0
0.0
0.0
0.0
0.0
0.0
0.24075029043204435
0.24075264504170085
0.2407502904320531
0.240750290432046
0.24075264504170088
0.2407502904320518
0.0
0.0
0.0
0.0004661657966493285
6.808433831272397e-06
0.00046616579665365965
0.0011017529047283568
0.0006105713702751013
0.0011017529047410936
0.0021424489746915227
0.0016692950741433352
0.002142448974716591
0.0036179754543687226
0.0031523231060390992
0.0036179754544098048
0.0055063299306217705
0.00504725525407859
0.0055063299306828285
0.0077917928842678895
0.007339360313829196
0.007791792884354567
0.010461600765407666
0.010016356182338289
0.010461600765524406
0.013504293357733496
0.013066628011189862
0.01350429335788442
0.016908626609062866
0.016478830573736794
0.01690862660925187
0.020663372520631766
0.02024165641076346
0.020663372520862613
0.02475727925116046
0.02434380036365136
0.02475727925143664
0.029179076988252842
0.028773953872471725
0.029179076988577697
0.033917484377085826
0.03352080683565313
0.03391748437745941
0.03896121268092137
0.03857304864949431
0.03896121268134015
0.044298968115086754
0.04391936861177873
0.04429896811554329
0.0499194532811404
0.04954845601423955
0.049919453281624476
0.05581136811943776
0.0554490001547051
0.05581136811994883
0.061963410577864426
0.06160969033441279
0.06196341057840205
0.06836427709403675
0.06801921585575012
0.06836427709460025
0.0750026629486703
0.07466626602136356
0.07500266294925924
0.08186726252791161
0.08153953013392516
0.08186726252852518
0.08894676952054495
0.0886276974960974
0.08894676952118268
0.09622987706810258
0.09591945741053418
0.09622987706876376
0.10370527788053452
0.10340349917988298
0.10370527788121853
0.11136166432640544
0.11106851210678119
0.11136166432711139
0.11918772850407025
0.11890318549385703
0.11918772850476748
0.1271721622984645
0.12689620864379403
0.12717216229912448
0.1353036574271692
0.13503627085969797
0.13530365742778902
0.14357090547878382
0.14331206144634237
0.14357090547936102
0.15196259794624467
0.15171226971311944
0.1519625979467767
0.16046742625638558
0.16022558497487946
0.1604674262568704
0.16907408177883607
0.16884069652592332
0.16907408177927213
0.17777125574763175
0.1775462934406367
0.17777125574801705
0.18654763869893118
0.18633106381752612
0.18654763869926438
0.1953919187337899
0.19518369203557243
0.19539191873406925
0.20429277369387047
0.20409285640895727
0.20429277369409538
0.21323886175827303
0.2130472418706493
0.21323886175844223
0.22221877056423409
0.22203568128642856
0.22221877056434752
0.23122117239270437
0.23104689908634124
0.2312211723927616
0.000907138540388485
0.0009223120334594775
0.0009071385403896857
0.001971419598647954
0.001979255009986332
0.001971419598650335
0.003282657875249633
0.0033126709005096167
0.0032826578752529673
0.0049045940231650575
0.004946432813073096
0.00490459402316912
0.006869139591558921
0.00691745923199804
0.006869139591563539
0.009191529245536666
0.009242950258076761
0.00919152924554171
0.011875405149370681
0.011928228091400803
0.011875405149376054
0.014918012099910795
0.014971241935413748
0.014918012099916436
0.01831309997798863
0.018366101176146815
0.018313099977994497
0.02205245624875414
0.022104795537025677
0.02205245624876021
0.026126732667677028
0.026178106041739636
0.02612673266768322
0.030525900995849398
0.030576090692847013
0.03052590099585578
0.03523951302167955
0.03528836029879559
0.03523951302168607
0.04025685343165838
0.040304240594831786
0.04025685343166502
0.045567032396304996
0.045612870784692096
0.04556703239631174
0.05115904321527464
0.05120326504910002
0.05115904321528151
0.05702179914654387
0.05706435190989594
0.05702179914655089
0.06314415750373722
0.06318500000884314
0.06314415750374436
0.06951493577224933
0.06955403535667956
0.06951493577225652
0.07612292260658989
0.0761602531064765
0.07612292260659723
0.08295688547471365
0.08299242573822302
0.082956885474721
0.09000557606276949
0.09003930884547624
0.09000557606277697
0.09725773415683822
0.09728964529091268
0.09725773415684587
0.10470209047163637
0.10473216823394695
0.10470209047164408
0.11232736873990234
0.11235560336639998
0.11232736873991021
0.12012228727535451
0.1201486705842672
0.12012228727536242
0.12807556015574686
0.12810008525257735
0.12807556015575497
0.13617589812868022
0.1361985591732903
0.13617589812868836
0.14441200931279383
0.1444328013338093
0.144412009312802
0.15277259974648033
0.1527915184915005
0.15277259974648866
0.16124637382163068
0.16126341563234187
0.16124637382163903
0.16982203462951231
0.16983719633764552
0.16982203462952056
0.17848828421920723
0.17850156306799617
0.17848828421921573
0.18723382380441692
0.1872452176296525
0.18723382380442516
0.19604735334682863
0.19605686161932012
0.19604735334683687
0.204917570858196
0.20492520016172625
0.20491757085820436
0.21383315239223666
0.2138389276891899
0.21383315239224512
0.22278278890601255
0.22278678990819856
0.22278278890602102
0.2317554065218708
0.23175810263210778
0.23175540652187937
0.2402384126962702
0.2402413339426246
0.24023841269627833
0.24006470886177983
0.24006804123148362
0.24006470886178718
0.24023841269626983
0.24024133394262356
0.24023841269627655
0.23175540652198534
0.23175810263222069
0.23175540652199092
0.22278278890623932
0.22278678990842396
0.22278278890624492
0.21383315239257528
0.2138389276895268
0.21383315239258047
0.20491757085864507
0.20492520016217375
0.20491757085864998
0.1960473533473863
0.19605686161987596
0.19604735334739115
0.1872338238050813
0.18724521763031501
0.18723382380508585
0.17848828421997578
0.17850156306876264
0.17848828421998025
0.16982203463038156
0.16983719633851274
0.16982203463038595
0.16124637382259752
0.16126341563330637
0.16124637382260157
0.15277259974754098
0.15279151849255865
0.1527725997475447
0.14441200931394393
0.14443280133495684
0.14441200931394724
0.1361758981299153
0.13619855917452242
0.13617589812991832
0.12807556015706165
0.12810008525388916
0.12807556015706442
0.12012228727674343
0.12014867058565296
0.12012228727674577
0.11232736874130811
0.11235560336780258
0.11232736874131019
0.1047020904729981
0.10473216823530529
0.10470209047299983
0.09725773415815436
0.09728964529222539
0.09725773415815586
0.09000557606403857
0.09003930884674191
0.09000557606403978
0.08295688547593441
0.0829924257394403
0.08295688547593533
0.07612292260776114
0.07616025310764421
0.0761229226077617
0.06951493577336983
0.06955403535779632
0.06951493577337017
0.0631441575048058
0.06318500000990786
0.06314415750480581
0.05702179914755945
0.057064351910907564
0.057021799147559116
0.05115904321623609
0.05120326505005743
0.051159043216235434
0.04556703239721138
0.04561287078559441
0.04556703239721043
0.04025685343248933
0.04030424059565853
0.04025685343248808
0.035239513022420246
0.03528836029953202
0.03523951302241871
0.03052590099649293
0.030576090693486255
0.030525900996491145
0.026126732668223653
0.026178106042282014
0.026126732668221624
0.0220524562492105
0.022104795537477774
0.022052456249208218
0.018313099978361804
0.018366101176515742
0.018313099978359296
0.014918012100208315
0.014971241935707088
0.014918012100205585
0.011875405149600476
0.011928228091626532
0.011875405149597581
0.00919152924570712
0.009242950258243331
0.009191529245704112
0.006869139591679083
0.0069174592321146295
0.006869139591676059
0.00490459402324659
0.0049464328131515346
0.004904594023243685
0.003282657875300819
0.0033126709005583733
0.0032826578752982428
0.0019714195986760305
0.001979255010012592
0.0019714195986740646
0.0009071385403997302
0.0009223120334696138
0.0009071385403987248
0.0
0.0
0.0
0.0
0.0
0.0
0.0
0.0
0.0
0.0004661657966513645
6.8084338316744435e-06
0.000466165796651392
0.0011017529047325496
0.0006105713702758861
0.0011017529047374986
0.002142448974696875
0.001669295074144522
0.002142448974712871
0.0036179754543747534
0.003152323106040694
0.0036179754544063795
0.005506329930628304
0.005047255254080587
0.005506329930679825
0.007791792884274847
0.007339360313831605
0.00779179288435203
0.01046160076541501
0.010016356182341115
0.010461600765522362
0.013504293357741223
0.0130666280111931
0.01350429335788288
0.016908626609070908
0.016478830573740423
0.016908626609250826
0.020663372520640128
0.020241656410767497
0.020663372520862085
0.024757279251169134
0.0243438003636558
0.0247572792514366
0.029179076988261835
0.02877395387247654
0.02917907698857815
0.03391748437709509
0.03352080683565833
0.03391748437746034
0.03896121268093091
0.03857304864949987
0.03896121268134157
0.04429896811509658
0.04391936861178471
0.04429896811554523
0.04991945328115062
0.049548456014245935
0.04991945328162697
0.05581136811944832
0.05544900015471195
0.05581136811995186
0.06196341057787527
0.06160969033442004
0.06196341057840561
0.06836427709404794
0.06801921585575785
0.06836427709460435
0.07500266294868176
0.0746662660213716
0.07500266294926382
0.08186726252792333
0.08153953013393361
0.08186726252853024
0.08894676952055688
0.0886276974961063
0.08894676952118823
0.0962298770681148
0.09591945741054325
0.09622987706876973
0.10370527788054712
0.10340349917989257
0.10370527788122501
0.11136166432641831
0.11106851210679118
0.11136166432711844
0.11918772850408332
0.11890318549386755
0.11918772850477515
0.127172162298478
0.12689620864380488
0.12717216229913267
0.13530365742718303
0.13503627085970926
0.13530365742779785
0.1435709054787978
0.14331206144635397
0.14357090547937018
0.15196259794625902
0.1517122697131316
0.1519625979467865
0.16046742625640015
0.16022558497489198
0.16046742625688062
0.16907408177885094
0.1688406965259361
0.16907408177928257
0.17777125574764674
0.1775462934406497
0.1777712557480281
0.1865476386989462
0.18633106381753933
0.18654763869927554
0.1953919187338047
0.1951836920355855
0.19539191873408057
0.20429277369388532
0.20409285640897062
0.20429277369410703
0.2132388617582881
0.21304724187066296
0.21323886175845447
0.2222187705642494
0.22203568128644247
0.22221877056436
0.23122117239272005
0.23104689908635528
0.23122117239277418
0.0004119303796504577
0.00041613204741697816
0.00041193037965140593
0.00014730046659775694
0.0001770063136602723
0.00014730046659795022
0.0004119303796543377
0.0004161320474201424
0.0004119303796534981
0.0011879594769108716
0.0012172641248098669
0.0011879594769128464
0.0007955393679379458
0.0008525021826885743
0.000795539367938338
0.0011879594769225654
0.0012172641248201542
0.0011879594769210768
0.0022971854266697943
0.002346639789314114
0.0022971854266723574
0.001871620584534372
0.0019368373910173238
0.001871620584534967
0.0022971854266931025
0.0023466397893355372
0.0022971854266914706
0.0037957806216112103
0.0038542098130837656
0.0037957806216141416
0.003355752004613654
0.0034233827518668535
0.0033557520046144525
0.003795780621650099
0.003854209813120525
0.003795780621648546
0.0056903678557620185
0.005751277369487504
0.005690367855765223
0.0052464881348395775
0.005313458367348703
0.00524648813484058
0.0056903678558206895
0.0057512773695439145
0.005690367855819299
0.007975867791849183
0.008036926415574287
0.007975867791852626
0.007533081126596553
0.007598381029953459
0.00753308112659776
0.007975867791933395
0.008036926415656183
0.007975867791932208
0.01064326674242737
0.010703530387881207
0.010643266742431013
0.010204337874092128
0.010267744903934495
0.010204337874093534
0.010643266742541605
0.01070353038799311
0.010643266742540652
0.013682354640399703
0.013741413869740206
0.013682354640403524
0.013248880766919864
0.013310357176761612
0.013248880766921475
0.013682354640548088
0.013741413869886266
0.013682354640547366
0.017082399902198505
0.017140031769855395
0.017082399902202516
0.016655375457550567
0.016714924616938374
0.01665537545755239
0.017082399902384988
0.017140031770039546
0.017082399902384516
0.02083242776184676
0.020888494310679795
0.020832427761850937
0.020412503221176593
0.020470129174019278
0.020412503221178605
0.02083242776207508
0.020888494310905854
0.020832427762074848
0.02492133313549299
0.024975742443935595
0.02492133313549731
0.024508951854309832
0.02456465640487381
0.024508951854312046
0.02492133313576667
0.02497574244420701
0.024921333135766673
0.029337937076977978
0.02939062590270201
0.029337937076982443
0.028933410551167327
0.02898719418673189
0.02893341055116974
0.0293379370773003
0.029390625903022077
0.029337937077300553
0.03407101655720784
0.034121940354025396
0.034071016557212494
0.033674568701918296
0.0337264315082023
0.03367456870192088
0.03407101655757892
0.03412194035439428
0.0340710165575794
0.03910932122857285
0.039158447959356635
0.03910932122857764
0.038721115659774444
0.03877105763436848
0.03872111565977719
0.0391093212289892
0.03915844795977076
0.039109321228989906
0.044441583210902434
0.04448888937118752
0.04444158321090737
0.044061740744603305
0.04410976187909883
0.044061740744606274
0.044441583211356515
0.044488889371639535
0.04444158321135749
0.05005652301323859
0.05010199104068764
0.05005652301324368
0.049685133263001426
0.04973123355344756
0.049685133263004645
0.0500565230137203
0.05010199104116724
0.05005652301372153
0.055942853236651734
0.05598646979251275
0.055942853236656986
0.05557998251805074
0.0556241619632688
0.05557998251805418
0.05594285323716045
0.05598646979301948
0.05594285323716197
0.062089280962066506
0.06213103576782883
0.06208928096207194
0.061734977812262344
0.06177723641202077
0.061734977812265994
0.06208928096260185
0.062131035768362194
0.06208928096260366
0.0684845093335613
0.06852439436673209
0.06848450933356687
0.06813880844818265
0.06817914620247222
0.06813880844818646
0.06848450933412253
0.06852439436729141
0.06848450933412462
0.07511723863456968
0.07515524756167416
0.07511723863457542
0.07478016372842436
0.07481858063726071
0.07478016372842844
0.07511723863515635
0.07515524756225894
0.07511723863515866
0.08197616703574609
0.08201229480540054
0.08197616703575189
0.08164773295562965
0.0816842290190211
0.0816477329556339
0.08197616703635743
0.08201229480601017
0.08197616703636003
0.08904999112507545
0.0890842336712505
0.08904999112508136
0.08873020543244882
0.08876478065039826
0.08873020543245318
0.089049991125711
0.08908423367188437
0.0890499911257138
0.09632740629044884
0.09635976031295773
0.09632740629045494
0.09601627046153353
0.09604892483404265
0.09601627046153809
0.09632740629110795
0.09635976031361515
0.09632740629111096
0.10379710700034875
0.1038275698003388
0.10379710700035509
0.1034946173455359
0.10352535087260889
0.10349461734554068
0.10379710700103076
0.10382756980101898
0.10379710700103399
0.11144778701294072
0.11147635636813634
0.11144778701294718
0.11115393538711041
0.11118274806875866
0.11115393538711549
0.11144778701364459
0.11147635636883872
0.11144778701364814
0.11926813953408355
0.11929481360313979
0.11926813953409009
0.11898291388892451
0.11900980572516605
0.11898291388892972
0.11926813953477884
0.11929481360383355
0.11926813953478266
0.12724685733830984
0.12727163458671584
0.12724685733831664
0.12697024215368669
0.12699521314448706
0.12697024215369218
0.127246857338968
0.1272716345873726
0.1272468573389721
0.13537263286271706
0.13539551200471336
0.13537263286272389
0.135104609484188
0.13512765962916173
0.13510460948419353
0.13537263286333523
0.13539551200532993
0.13537263286333948
0.14363415828066467
0.14365513823289805
0.14363415828067175
0.14337470518320056
0.14339583448056945
0.14337470518320639
0.1436341582812403
0.14365513823347237
0.14363415828124484
0.15202012555974453
0.15203920540310048
0.1520201255597517
0.15176921855251074
0.1517884269970109
0.1517692185525168
0.15202012556027508
0.15203920540362972
0.15202012556027994
0.16051922650634137
0.16053640545567507
0.16051922650634873
0.16027683888836786
0.16029412647050953
0.16027683888837407
0.16051922650682485
0.16053640545615727
0.16051922650682998
0.16912015279503045
0.16913543018728588
0.1691201527950378
0.16888625546827926
0.1689016222018178
0.16888625546828565
0.16912015279546497
0.16913543018771962
0.16912015279547046
0.17781159599134758
0.17782497137657396
0.17781159599135504
0.17758615751298287
0.1775996035754463
0.1775861575129893
0.1778115959917318
0.17782497137695713
0.1778115959917372
0.18658224756726235
0.1865937211098319
0.1865822475672698
0.18636523416401818
0.18637676056780106
0.18636523416402487
0.18658224756759442
0.186593721110163
0.1865822475676
0.19542079933775405
0.1954303736473676
0.1954207993377613
0.19521217449838152
0.19522178478756555
0.19521217449838807
0.19542079933803244
0.19543037364764498
0.1954207993380382
0.2043159439528371
0.2043236278699697
0.20431594395284447
0.2041156719837463
0.20412337874707315
0.2041156719837528
0.204315943953061
0.20432362787019287
0.20431594395306668
0.21325638670198072
0.2132622103486987
0.21325638670198838
0.21306444698903867
0.2130702847687501
0.21306444698904545
0.2132563867021493