# vtk DataFile Version 2.0
mesh vtk view
ASCII
DATASET UNSTRUCTURED_GRID
POINTS 1025 double
0.0 0.0 0.0
799.9651060482377 -0.4666515269671337 -1.1060105246710946e-05
800.0348939517625 79.53334847303286 1.1060106291047447e-05
0.0 80.0 0.0
0.0 0.0 80.0
799.9651060482375 -0.4666515269671615 80.00001106010626
800.0348939517623 79.53334847303285 79.99998893989478
0.0 80.0 80.0
19.998395020331312 -0.0006237620107519763 -0.0009192385203011113
39.99679203049916 -0.0017214048453997662 -0.0010648029017747544
59.99519386777134 -0.0037637668869073644 -0.0010972306457676412
79.9936039361814 -0.006637124962418384 -0.0010745531017954412
99.9920470394481 -0.010309395283103782 -0.0010438428761712778
119.9905306347946 -0.01475137265906391 -0.0010129680025230913
139.9890575717889 -0.01994075336783455 -0.000982760850107628
159.9876284395774 -0.025855536952047023 -0.0009528705551348813
179.98624331950276 -0.03247382322610955 -0.0009230762922230424
199.98490219293325 -0.039773652488884814 -0.0008933009068478435
219.98360504499237 -0.04773304695923341 -0.0008635263192418207
239.9823518697892 -0.056330022073425565 -0.0008337504663654342
259.9811426658307 -0.06554259219955082 -0.0008039739264473464
279.97997743290534 -0.0753487716540464 -0.0007741971621731901
299.9788561709877 -0.08572657484615977 -0.0007444203486385135
319.977778880108 -0.09665401623037322 -0.000714643530709578
339.9767455602793 -0.10810911027603017 -0.0006848667149478454
359.9757562115052 -0.12006987145558895 -0.0006550899006256949
379.9748108337862 -0.1325143142417616 -0.0006253130868153371
399.9739094271226 -0.14542045310710508 -0.0005955362731280162
419.9730519915142 -0.15876630252407972 -0.0005657594594551892
439.97223852696095 -0.1725298769651124 -0.000535982645776913
459.9714690334628 -0.18668919090262198 -0.0005062058320915333
479.97074351101986 -0.20122225880902508 -0.00047642901840241046
499.970061959632 -0.21610709515672527 -0.0004466522047435274
519.9694243793748 -0.2313217144181346 -0.0004168753912832116
539.968830770239 -0.24684413106547096 -0.0003870985785764398
559.9682811321597 -0.26265235957075084 -0.0003573217677991076
579.9677754651424 -0.27872441440658186 -0.00032754495916195313
599.9673137692051 -0.29503831005074255 -0.00029776814051501543
619.9668960443856 -0.31157206100115337 -0.0002679912417168859
639.9665222906777 -0.3283036818210143 -0.00023821401347358094
659.9661925076523 -0.34521118714383037 -0.00020843585744712484
679.965906692887 -0.36227259151424523 -0.00017865640375714351
699.9656648385472 -0.37946590538397224 -0.0001488803087125412
719.9654669214408 -0.396769120227232 -0.00011914687571754721
739.9653128942027 -0.41416008548211214 -8.962011788739517e-05
759.9652024608936 -0.4316164078342735 -6.105379030411447e-05
779.9651343965971 -0.449115537785545 -3.3468255243378684e-05
799.9825866123164 19.533364635918442 -2.0760245032478777e-07
800.0 39.53337652702988 5.223656866672368e-13
800.0174133876837 59.53336463592513 2.0760349483041564e-07
780.0348656034355 79.55088446221423 3.3468256250675077e-05
760.034797539172 79.56838359216529 6.105379127400046e-05
740.0346871058956 79.58583991451724 8.962011882001162e-05
720.0345330786902 79.6032308797719 0.00011914687661277194
700.0343351616166 79.62053409461494 0.00014888030957003795
680.0340933073095 79.63772740848447 0.00017865640457743242
660.0338074925769 79.65478881285468 0.00020843585823054312
640.0334777095842 79.6716963181773 0.0002382140142196042
620.0331039559092 79.68842793899697 0.00026799124242632297
600.0326862311223 79.7049616899472 0.00029776814118762004
580.0322245352178 79.72127558559117 0.00032754495979812773
560.031718868233 79.73734764042685 0.00035732176839913427
540.0311692301865 79.75315586893197 0.00038709857914062673
520.0305756210836 79.76867828557916 0.000416875391812328
500.0299380408592 79.78389290484054 0.00044665220523816226
480.02925648950406 79.79877774118832 0.0004764290188632608
460.02853096709384 79.81331080909482 0.0005062058325194397
440.02776147362846 79.82747012303241 0.000535982646172599
420.02694800910785 79.84123369747354 0.000565759459819423
400.02609057353226 79.85457954689062 0.0005955362734616624
380.0251891669013 79.86748568575605 0.000625313087119412
360.0242437892152 79.87993012854233 0.0006550899009012205
340.02325444047375 79.89189088972199 0.0006848667151957631
320.0222211206777 79.90334598376775 0.0007146435309310789
300.02114382983075 79.91427342515207 0.0007444203488346918
280.0200225678703 79.92465122834433 0.000774197162345287
260.01885733483556 79.934457407799 0.0008039739265968077
240.0176481308142 79.94366997792532 0.0008337504664936902
220.01639495557282 79.95226695303971 0.0008635263193503797
200.01509780759363 79.96022634751023 0.0008933009069381796
180.0137566809858 79.96752617677316 0.0009230762922965831
160.01237156087262 79.97414446304738 0.0009528705551932136
140.0109424286228 79.98005924663173 0.0009827608501523984
120.00946936557882 79.98524862734061 0.0010129680025559582
100.00795296088411 79.98969060471667 0.001043842876194013
80.00639606407977 79.99336287503743 0.0010745531018099641
60.00480613241596 79.99623623311301 0.0010972306457763764
40.00320796962314 79.99827859515456 0.0010648029017805184
20.00160497973251 79.99937623798924 0.000919238520307056
0.0 60.0 0.0
0.0 40.0 0.0
0.0 20.0 0.0
19.99839502033131 -0.0006237620107548428 80.0009192385203
39.99679203049915 -0.001721404845403792 80.00106480290178
59.99519386777133 -0.003763766886912259 80.00109723064577
79.99360393618139 -0.006637124962424003 80.0010745531018
99.99204703944807 -0.010309395283110112 80.00104384287619
119.99053063479457 -0.014751372659070939 80.00101296800256
139.9890575717889 -0.01994075336784231 80.00098276085015
159.98762843957738 -0.025855536952055527 80.0009528705552
179.98624331950273 -0.03247382322611874 80.0009230762923
199.98490219293322 -0.03977365248889467 80.00089330090694
219.98360504499234 -0.04773304695924401 80.00086352631935
239.98235186978917 -0.05633002207343679 80.00083375046648
259.98114266583065 -0.06554259219956274 80.0008039739266
279.9799774329053 -0.07534877165405897 80.00077419716234
299.9788561709877 -0.08572657484617309 80.00074442034882
319.977778880108 -0.0966540162303872 80.00071464353093
339.97674556027926 -0.10810911027604513 80.00068486671519
359.97575621150514 -0.12006987145560452 80.00065508990089
379.97481083378614 -0.13251431424177793 80.00062531308711
399.9739094271225 -0.14542045310712212 80.00059553627345
419.9730519915141 -0.1587663025240972 80.0005657594598
439.9722385269609 -0.17252987696513056 80.00053598264616
459.9714690334627 -0.18668919090264083 80.00050620583251
479.97074351101975 -0.20122225880904468 80.00047642901885
499.97006195963195 -0.21610709515674553 80.00044665220523
519.9694243793748 -0.2313217144181556 80.00041687539179
539.968830770239 -0.24684413106549288 80.00038709857913
559.9682811321596 -0.26265235957077343 80.00035732176838
579.9677754651424 -0.27872441440660467 80.00032754495977
599.9673137692051 -0.29503831005076625 80.00029776814117
619.9668960443856 -0.3115720610011778 80.00026799124241
639.9665222906777 -0.32830368182103936 80.0002382140142
659.9661925076523 -0.3452111871438556 80.00020843585821
679.9659066928868 -0.362272591514271 80.00017865640456
699.9656648385472 -0.3794659053839978 80.00014888030955
719.9654669214407 -0.39676912022725735 80.00011914687659
739.9653128942026 -0.4141600854821386 80.0000896201188
759.9652024608935 -0.4316164078343004 80.00006105379124
779.9651343965971 -0.44911553778557245 80.00003346825622
799.9825866123163 19.533364635918414 80.00000020760348
799.9999999999999 39.53337652702985 80.00000000000053
800.0174133876836 59.5333646359251 79.99999979239756
780.0348656034355 79.55088446221421 79.99996653174479
760.0347975391719 79.56838359216526 79.99993894620972
740.0346871058955 79.58583991451721 79.99991037988214
720.0345330786901 79.60323087977187 79.99988085312431
700.0343351616165 79.62053409461491 79.99985111969131
680.0340933073095 79.63772740848444 79.99982134359627
660.0338074925768 79.65478881285465 79.99979156414258
640.0334777095841 79.67169631817727 79.99976178598655
620.033103955909 79.68842793899694 79.99973200875831
600.0326862311222 79.70496168994717 79.99970223185952
580.0322245352177 79.72127558559116 79.99967245504087
560.031718868233 79.73734764042682 79.99964267823222
540.0311692301864 79.75315586893194 79.99961290142144
520.0305756210836 79.76867828557914 79.99958312460875
500.0299380408591 79.78389290484051 79.99955334779528
480.029256489504 79.7987777411883 79.99952357098162
460.0285309670938 79.8133108090948 79.99949379416793
440.0277614736284 79.8274701230324 79.99946401735424
420.0269480091078 79.84123369747353 79.99943424054057
400.0260905735322 79.8545795468906 79.99940446372689
380.02518916690127 79.86748568575604 79.9993746869132
360.0242437892151 79.87993012854231 79.9993449100994
340.0232544404737 79.89189088972198 79.99931513328507
320.02222112067767 79.90334598376775 79.9992853564693
300.0211438298307 79.91427342515206 79.99925557965138
280.0200225678702 79.92465122834433 79.99922580283784
260.0188573348355 79.934457407799 79.99919602607356
240.01764813081417 79.94366997792531 79.99916624953364
220.01639495557276 79.9522669530397 79.99913647368076
200.0150978075936 79.96022634751023 79.99910669909316
180.01375668098578 79.96752617677316 79.99907692370779
160.0123715608726 79.97414446304738 79.99904712944488
140.0109424286228 79.98005924663173 79.99901723914991
120.0094693655788 79.98524862734061 79.99898703199749
100.0079529608841 79.98969060471667 79.99895615712383
80.00639606407975 79.99336287503743 79.99892544689821
60.00480613241594 79.99623623311301 79.99890276935423
40.00320796962313 79.99827859515456 79.99893519709822
20.001604979732505 79.99937623798924 79.99908076147969
0.0 60.0 80.0
0.0 40.0 80.0
0.0 20.0 80.0
0.0 0.0 20.0
0.0 0.0 40.0
0.0 0.0 60.0
799.9650928721593 -0.46666229646459806 19.999992895456394
799.9650899380184 -0.46666666666666673 40.00000000000051
[...]
POINT_DATA 1025
SCALARS CellEntityIds float 1
LOOKUP_TABLE default
5.404105221159053
0.22408256284691835
0.22408256284682654
5.404105221176179
5.404105221171114
0.2240825628471786
0.2240825628472284
5.404105221163554
5.93417797609076
6.366853347124555
6.2216169310362845
6.099093881977916
5.943202174455989
5.7777182229835375
5.6085845877459155
5.43879924769457
5.268971503051076
5.099192138883966
4.929443161656097
4.759710322829459
4.589988581216263
4.42027749065111
4.250578076714256
4.080891830066034
3.911220504896265
3.7415661506896365
3.5719311950483097
3.4023185469786066
3.232731726670606
3.063175035902294
2.893653787780229
2.724174622386937
2.554745948466052
2.3853785738913094
2.216086625791804
2.046888927575335
1.8778111222043745
1.7088890713107259
1.5401745870147052
1.3717457305703318
1.2037269455776418
1.0363294966178058
0.8699373710636862
0.7052205201198509
0.5433583194054673
0.3862183601819557
0.2665942845531421
0.29870548529871654
0.37332840775043213
0.298705485298588
0.2665942845520787
0.38621836017874
0.5433583193998857
0.7052205201120907
0.8699373710540077
1.0363294966060952
1.2037269455640773
1.3717457305551353
1.5401745869976886
1.7088890712918552
1.8778111221839429
2.0468889275536073
2.2160866257687726
2.385378573867688
2.554745948442956
2.7241746223647247
2.893653787758882
3.0631750358818617
3.232731726651058
3.402318546959794
3.5719311950301744
3.741566150672297
3.911220504879701
4.080891830050216
4.250578076700032
4.4202774906394495
4.589988581207464
4.759710322823546
4.929443161652905
5.099192138883294
5.268971503052839
5.438799247698832
5.608584587752686
5.777718222992819
5.9432021744675225
6.0990938819918705
6.2216169310530915
6.366853347145458
5.934177976111112
3.581807897845242
1.759510574506192
3.581807897828566
5.934177976104406
6.366853347139568
6.22161693105096
6.09909388199228
5.943202174469938
5.777718222997045
5.608584587758971
5.438799247707154
5.268971503063215
5.099192138895694
4.929443161667393
4.759710322840316
4.589988581226705
4.4202774906611495
4.2505780767237855
4.080891830075026
3.9112205049048776
3.7415661506977997
3.5719311950559476
3.4023185469858235
3.232731726677288
3.0631750359085386
2.8936537877860022
2.724174622391965
2.5547459484706954
2.3853785738958577
2.216086625795938
2.0468889275787547
1.8778111222071385
1.7088890713129827
1.540174587016387
1.3717457305716234
1.203726945578686
1.0363294966185546
0.8699373710644773
0.7052205201208999
0.5433583194063056
0.3862183601826066
0.26659428455366996
0.2987054852991098
0.37332840775126075
0.2987054852993544
0.26659428455241924
0.3862183601790822
0.5433583194004107
0.7052205201123322
0.8699373710535996
1.0363294966053205
1.2037269455629969
1.371745730553648
1.5401745869958225
1.7088890712897669
1.8778111221814822
2.0468889275505924
2.2160866257651124
2.385378573863335
2.5547459484383026
2.724174622359836
2.8936537877535122
3.0631750358758474
3.2327317266444022
3.4023185469526727
3.571931195022686
3.7415661506643234
3.9112205048711437
4.080891830041237
4.250578076690674
4.42027749062963
4.58998858119714
4.759710322812765
4.9294431616417
5.099192138871668
5.268971503040779
5.438799247686303
5.608584587739689
5.777718222979389
5.943202174453672
6.099093881977611
6.221616931038497
6.366853347130448
5.934177976097153
3.581807897832987
1.7595105745053394
3.581807897839686
5.207395029659593
5.010684838162113
5.2073950296676035
0.2206953739293243
0.2173081850118157
0.22069537392953986
0.2206953739294295
0.21730818501216653
0.22069537392976452
5.207395029673943
5.010684838169819
5.207395029665742
3.9576777879332927
1.981177599784799
3.9576777879524423
4.26543602561974
2.1640187041245547
4.265436025639821
4.161518930869112
2.1014209307109866
4.1615189308865626
4.078527845811923
2.0579618096542713
4.078527845827241
3.978147519174196
2.0130928639002974
3.978147519187857
3.8692554438129987
1.9607926646499019
3.8692554438250815
3.757312887485663
1.906041187232184
3.757312887495821
3.6447771484456775
1.8507550492029012
3.644777148453925
3.532237185843209
1.79550286864082
3.532237185849569
3.419776912702812
1.7403616865265297
3.4197769127073476
3.307386938598001
1.6853307155442168
3.3073869386007164
3.1950592409854597
1.630408159145109
3.1950592409861516
3.082794464654903
1.5756003480962941
3.0827944646532544
2.9705979245326715
1.5209183584158612
2.97059792452847
2.8584770782477973
1.4663760797818124
2.858477078241159
2.7464407862399502
1.41198974241371
2.7464407862318847
2.6344993220853814
1.3577781392741313
2.6344993220767323
2.522664631245507
1.3037631118007493
2.5226646312362098
2.4109506915730736
1.2499701880969603
2.4109506915631282
2.29937396259435
1.1964293782089344
2.299373962583784
2.1879539485294632
1.1431761703868417
2.1879539485182105
2.0767139134056234
1.0902527909072512
2.076713913393706
1.965681798763411
1.0377098097448278
1.9656817987509725
1.8548914117596342
0.985608201130474
1.8548914117466704
1.7443839765037714
0.9340220045389883
1.744383976489721
1.634210177120042
0.8830417803454411
1.6342101771048978
1.524432871700944
0.8327791176065947
1.524432871685939
1.415130728813292
0.7833725300479517
1.4151307287991308
1.3064031439855142
0.7349951657635031
1.3064031439721475
1.1983769543731722
0.6878648374326604
1.1983769543607785
1.0912157358044527
0.6422568845914802
1.0912157357932244
0.985132933825666
0.598520137078755
0.9851329338158226
0.880411004689111
0.5570950637989692
0.8804110046807176
0.7774298635107673
0.5185302304024029
0.777429863503586
0.6767114510223524
0.48348553097984687
0.6767114510163414
0.5789860696792603
0.45275161923773494
0.5789860696744454
0.4854732359740025
0.4275881525418962
0.4854732359705701
0.39866967296576167
0.4111209857493704
0.3986696729639565
0.3280383655702979
0.3894824465874267
0.3280383655697393
5.838294620485763
5.742411264883049
5.838294620494869
6.405969447833616
6.445085548545212
6.405969447843656
6.2741277324346605
6.326638533835479
6.274127732444441
6.12012037731775
6.141146872659974
6.1201203773273205
5.949504075916312
5.955805977378958
5.94950407592561
5.7789864980784005
5.780254773175511
5.778986498087402
5.608674651032648
5.6087647143215476
5.608674651041342
5.438727440629723
5.438655633566958
5.438727440638097
5.2689064425324394
5.268841382015822
5.268906442540528
5.099126617314549
5.099061095747073
5.099126617322355
4.92935841091789
4.929273660181555
4.929358410925411
4.759597116854109
4.759483910880581
4.75959711686136
4.589843258581322
4.589697935948129
4.5898432585882905
4.420098169585865
4.419918848522271
4.420098169592537
4.250363144448171
4.250148212183657
4.250363144454507
4.08063951997045
4.080387209876358
4.0806395199764385
3.9109287997707836
3.910637094646718
3.9109287997765056
3.741232744559822
3.740899338431355
3.741232744565252
3.5715534481089035
3.5711757011707697
3.5715534481139946
3.4018934232086537
3.401468299439891
3.401893423213452
3.2322557118900614
3.231779697110629
3.2322557118945148
3.0626440321354185
3.0621130283695823
3.06264403213958
2.8930629764832942
2.8924721651873044
2.8930629764871254
2.723518285165217
2.7228619479443337
2.7235182851685678
2.554017228481175
2.5532885084970913
2.5540172284842906
2.3845691529810678
2.3837597320715878
2.3845691529841035
2.2151862794984334
2.214285933205743
2.215186279501181
2.0458848991008938
2.0448808706270563
2.0458848991032075
1.8766872172987221
1.875563312393569
1.8766872173006037
1.7076242907535109
1.7063595101966693
1.7076242907550125
1.5387409012632696
1.5373072155120682
1.5387409012643447
1.3701040708518075
1.3684624111334545
1.3701040708526246
1.2018193930920344
1.1999118406065548
1.2018193930926844
1.0340644370914598
1.031799377565224
1.0340644370919443
0.867166509729322
0.8643956483952064
0.8671665097299662
0.7017266402776875
0.6982327604358805
0.7017266402785683
0.5388683533121177
0.5343783872189891
0.538868353312758
0.38073678665096566
0.37525521312004695
0.38073678665136235
0.2619499968781038
0.2573057092031424
0.2619499968784446
0.2909183660974442
0.28313124689629143
0.2909183660977604
0.36114135826569954
0.3489543087811719
0.36114135826631877
0.2909183660976322
0.2831312468968716
0.2909183660982106
0.2619499968770551
0.25730570920201024
0.2619499968772041
0.3807367866476459
0.37525521311643995
0.3807367866477052
0.5388683533065063
0.534378387213192
0.5388683533068339
0.7017266402698884
0.6982327604277931
0.7017266402701161
0.86716650971948
0.8643956483849081
0.8671665097192318
1.034064437079474
1.0317993775527514
1.034064437078985
1.2018193930780483
1.1999118405919467
1.2018193930774355
1.3701040708360521
1.3684624111168378
1.370104070835177
1.5387409012456534
1.5373072154933847
1.5387409012444868
1.707624290733956
1.706359510175722
1.707624290732577
1.876687217277421
1.875563312370473
1.8766872172757647
2.04588489907803
2.0448808706019435
2.0458848990760137
2.2151862794740795
2.214285933178758
2.215186279471621
2.384569152956031
2.3837597320436394
2.38456915295312
2.554017228456603
2.553288508469449
2.554017228453476
2.7235182851413495
2.722861947917164
2.723518285138095
2.8930629764600564
2.8924721651603975
2.893062976456538
3.0626440321129422
3.062113028343065
3.0626440321089774
3.2322557118683366
3.231779697084515
3.2322557118639086
3.4018934231875217
3.40146829941407
3.4018934231827815
3.5715534480882876
3.5711757011451457
3.5715534480832885
3.7412327445398357
3.74089933840599
3.7412327445344653
3.910928799751404
3.910637094621631
3.9109287997456494
4.080639519951672
4.080387209851613
4.080639519945668
4.250363144430861
4.250148212160129
4.25036314442462
4.420098169570933
4.419918848500791
4.420098169564398
4.589843258569075
4.58969793592898
4.589843258562208
4.75959711684462
4.759483910863899
4.759597116837436
4.929358410910959
4.9292736601671505
4.929358410903494
5.099126617309993
5.099061095734761
5.099126617302249
5.268906442530197
5.268841382005542
5.268906442522155
5.438727440629807
5.438655633558696
5.438727440621455
5.608674651035055
5.6087647143152575
5.60867465102639
5.7789864980830865
5.780254773171115
5.778986498074133
5.9495040759229125
5.955805977375998
5.9495040759136835
6.120120377326363
6.1411468726584895
6.1201203773168675
6.274127732446136
6.3266385338367535
6.274127732436412
6.405969447849997
6.445085548552022
6.405969447839979
5.838294620502759
5.742411264892177
5.838294620493551
3.420354234817872
3.2589005717886725
3.420354234809915
1.6333134399551623
1.5071163054041397
1.6333134399547429
3.420354234804058
3.2589005717814334
3.4203542348115006
3.957677787946504
1.9811775997844832
3.957677787938759
4.265436025634912
2.164018704124844
4.26543602562494
4.161518930883981
2.101420930711372
4.16151893087212
4.0785278458263985
2.0579618096546963
4.078527845813243
3.978147519188232
2.0130928639007517
3.9781475191743256
3.869255443826593
1.9607926646503826
3.8692554438120057
3.7573128874988098
1.9060411872326812
3.7573128874832014
3.64477714845837
1.8507550492034097
3.6447771484417686
3.532237185855456
1.7955028686413441
3.5322371858378854
3.4197769127146262
1.7403616865270528
3.4197769126961077
3.30738693860937
1.685330715544723
3.3073869385899
3.195059240996411
1.6304081591456208
3.19505924097575
3.0827944646654557
1.5756003480968448
3.0827944646433116
2.970597924542798
1.5209183584164707
2.970597924519062
2.8584770782574553
1.466376079782475
2.8584770782322497
2.7464407862491322
1.4119897424144061
2.7464407862234057
2.6344993220941606
1.357778139274846
2.634499322068696
2.5226646312538343
1.303763111801488
2.5226646312287153
2.410950691580924
1.2499701880977279
2.410950691556121
2.2993739626017535
1.196429378209698
2.2993739625771923
2.1879539485362427
1.1431761703874908
2.187953948512093
2.076713913411928
1.0902527909078852
2.0767139133881503
1.9656817987694246
1.037709809745719
1.9656817987460515
1.854891411765105
0.9856082011315129
1.854891411742309
1.7443839765086937
0.9340220045399632
1.7443839764857687
1.6342101771246584
0.8830417803464481
1.634210177101386
1.5244328717051916
0.8327791176076862
1.5244328716830196
1.4151307288170105
0.7833725300491362
1.4151307287967994
1.3064031439886863
0.7349951657648273
1.3064031439704513
1.198376954375776
0.687864837433944
1.1983769543595428
1.0912157358064825
0.6422568845926003
1.0912157357922228
0.985132933827293
0.5985201370797277
0.9851329338150703
0.8804110046904895
0.5570950637998351
0.8804110046801873
0.7774298635115683
0.5185302304027056
0.777429863503075
0.6767114510229831
0.4834855309801239
0.6767114510161794
0.5789860696804188
0.45275161923915364
0.5789860696753508
0.48547323597504927
0.427588152543588
0.48547323597189684
0.3986696729665754
0.41112098575057215
0.3986696729648411
0.32803836557096894
0.38948244658837183
0.32803836557044747
3.891335771227014
3.8249937545229713
3.891335771235856
1.944376921975271
1.9075762441657924
1.9443769219751625
3.8913357712425176
3.8249937545304338
3.891335771233517
4.310733854698174
4.356031683779165
4.310733854708317
2.2154982615698455
2.266977819015219
2.215498261570073
4.310733854713479
4.356031683784671
4.310733854703573
4.204936259576593
4.2483535882865535
4.204936259586507
2.135744786725046
2.1700686427391713
2.1357447867253048
4.20493625958885
4.248353588288734
4.204936259579224
4.094506438322426
4.110485030835333
4.094506438332067
2.068892499333022
2.0798231890118286
2.0688924993332902
4.094506438332651
4.110485030835727
4.094506438323317
3.981858514052859
3.9855695089338536
3.9818585140622087
2.014212952194992
2.015333040489741
2.0142129521952734
3.981858514061745
3.9855695089333647
3.981858514052711
3.8689050520645845
3.8685546603184306
3.868905052073641
1.9588236060559976
1.9568545474621524
1.958823606056297
3.868905052072156
3.8685546603170353
3.8689050520634227
3.7559792554250704
3.754645623366658
3.7559792554338243
1.9032838598221333
1.900526532412146
1.9032838598224453
3.7559792554309146
3.7546456233638903
3.755979255422487
3.643244449864703
3.641711751285831
3.6432444498731518
1.8477614591037426
1.8447678690046485
1.8477614591040616
3.6432444498688046
3.6417117512816444
3.6432444498606866
3.530623899474356
3.5290106131075367
3.530623899482513
1.7923413564197739
1.7891798441987907
1.7923413564200992
3.5306238994767356
3.5290106131019363
3.530623899468928
3.418069152338112
3.416361391975367
3.418069152345974
1.7370116873646475
1.7336616882028277
1.7370116873649717
3.418069152338806
3.4163613919683784
3.4180691523313
3.3055642959572396
3.303741653318361
3.305564295964807
1.6817701809990653
1.6782096464539775
1.6817701809993821
3.30556429595625
3.3037416533099693
3.305564295949028
3.1931092470673077
3.1911592531509814
3.1931092470746094
1.6266213772823785
1.622834595419714
1.6266213772827003
3.1931092470644353
3.1911592531409725
3.1931092470574884
3.080708701642286
3.0786229386314297
3.080708701649323
1.5715741447042926
1.5675479413123716
1.5715741447046485
3.0807087016372052
3.078622938619496
3.0807087016305745
2.9683688161032395
2.9661397076754854
2.968368816109981
1.5166394626206232
1.512360566825476
1.516639462621019
2.968368816095782
2.966139707661522
2.9683688160895056
2.856096607616513
2.853716136986829
2.856096607622942
1.461830070783803
1.4572840617858758
1.4618300707842167
2.8560966076068057
2.85371613697094
2.8560966076008376
2.7439000819922654
2.741359377746094
2.74390008199837
1.4071606440124698
1.4023315456112897
1.4071606440128783
2.7439000819812653
2.7413593777291814
2.743900081975562
2.631788485266676
2.6290776484494067
2.631788485272502
1.3526481707608227
1.3475182022475762
1.3526481707612423
2.6317884852552407
2.629077648432344
2.6317884852498175
2.519772588751441
2.5168805462587494
2.5197725887569793
1.2983124329411264
1.2928617540815937
1.2983124329415858
2.519772588739514
2.516880546241517
2.5197725887344653
2.407865022960086
2.404779354348407
2.4078650229653196
1.2441765978091262
1.2383830075214153
1.2441765978096333
2.407865022947636
2.4047793543309663
2.4078650229429552
2.296080689665824
2.2927874167385074
2.2960806896707355
1.1902679561206448
1.1841065340324524
1.1902679561211236
2.2960806896529085
2.292787416720925
2.2960806896485053
2.184437282650099
2.1809206167718287
2.1844372826545824
1.1366188534075858
1.1300615364283737
1.136618853407954
2.184437282636686
2.1809206167541166
2.184437282632583
2.072955953662401
2.069197993920208
2.0729559536665825
1.0832678751866809
1.0762829594661798
1.083267875187067
2.07295595364846
2.0691979939022955
2.0729559536447635
1.9616621718239038
1.957642544885382
1.961662171827896
1.030261367161783
1.0228129245788609
1.030261367162351
1.9616621718095546
1.9576425448673296
1.9616621718062865
1.850586842566917
1.84628227337509
1.850586842570543
0.9776553999658537
0.9697025988013701
0.9776553999665099
1.8505868425522203
1.8462822733570288
1.850586842549298
1.7397677779529697
1.7351515794029602
1.739767777956223
0.9255183274214565
0.9170146503040221
0.9255183274220413
1.7397677779373755
1.7351515793843322
1.7397677779347016
1.6292516471639202
1.624293117208554
1.629251647166984
0.8739341413427645
0.864826502340208
0.8739341413433883
1.6292516471473935
1.6242931171892676
1.6292516471450158
1.5190965892431598
1.5137603067860654
1.5190965892459733
0.823006898983778
0.8132346803610973
0.8230068989844597
1.5190965892268746
1.5137603067672827
1.5190965892248873
1.4093757473368065
1.403620765860952
1.409375747339297
0.7728665955688606
0.7623606610899306
0.772866595569614
1.409375747321516
1.4036207658434785
1.4093757473199275
1.3001820959840131
1.2939610479830432
1.3001820959861305
0.723676974665703
0.7123587835680851
0.7236769746665473
1.3001820959697614
1.293961047967063
1.300182095968601
1.1916350976718735
1.1848932409709818
1.1916350976735823
0.675645904586935
0.6634269717413251
0.6756459045876924
1.1916350976587948
1.184893240956539
1.1916350976579047
1.0838899795794728
1.0765642233547879
1.0838899795807828
0.6290390578926945
0.6158212311940291
0.629039057893375
1.083889979567683
1.0765642233419674
1.083889979567008
0.9771508543007175
0.9691687747759681
0.9771508543017301
0.5841976377471467
0.5698751384156033
0.5841976377476981
0.977150854290359
0.9691687747647812
0.9771508542898688
0.8716899078370923
0.8629688109852612
0.8716899078379691
0.5415604225803007
0.5260257813617306
0.5415604225808321
0.8716899078282496
0.8629688109757201
0.871689907827923
0.7678768863253248
0.7583239091399732
0.7678768863258159
0.5016893355576486
0.48484844071292277
0.5016893355578285
0.7678768863177907
0.7583239091319375
0.7678768863174773
0.6662301306577021
0.655748810293171
0.6662301306581366
0.4652937515847769
0.44710197218968295
0.46529375158489145
0.6662301306514757
0.6557488102865693
0.6662301306513538
0.5675070332777872
0.5560279968766348
0.5675070332786871
0.4332874262769101
0.4138232333163183
0.43328742627785255
0.5675070332729107
0.5560279968715202
0.5675070332735077
0.47302986021089805
0.4605864844480496
0.47302986021167753
0.4071913671090208
0.3867945816764632
0.40719136711018444
0.47302986020743476
0.46058648444450406
0.47302986020830284
0.3857587390144203
0.37284780506318704
0.3857587390149353
0.39078069137753985
0.3704403970059651
0.39078069137839655
0.38575873901242536
0.3728478050610215
0.38575873901299496
0.31768286350099384
0.30732736143179895
0.3176828635014386
0.3734157301238432
0.3573490136604778
0.37341573012453383
0.3176828635004289
0.30732736143125516
0.31768286350091957
