# vtk DataFile Version 2.0
mesh vtk view
ASCII
DATASET UNSTRUCTURED_GRID
POINTS 1025 double
0.0 0.0 0.0
792.8193685378832 -96.02961164182842 -0.002275997291731148
807.1806314621322 -16.029611641828467 0.002275997506639324
0.0 80.0 0.0
0.0 0.0 80.0
792.819368537868 -96.02961164183414 80.00227599750112
807.180631462117 -16.029611641834208 79.99772400271387
0.0 80.0 80.0
19.669720213292045 -0.12836050069039423 -0.18916496145300707
39.33984990502552 -0.35423828966436394 -0.21911984258807168
59.01097293826918 -0.7745245682771408 -0.22579296692626097
78.68378980958964 -1.3658168798925023 -0.221126281798722
98.36340474013726 -2.1215128807845525 -0.21480659597386656
118.05135231579202 -3.0356025980250614 -0.2084530281516516
137.74821892767395 -4.10349627312695 -0.20223686695291893
157.45412581235186 -5.320666554833518 -0.19608591007778
177.16908970885683 -6.682606726257044 -0.18995471510414835
196.89310678311563 -8.184797823138068 -0.18382740483335713
216.62617397376334 -9.82271716063447 -0.17770025873102938
236.36829006852184 -11.591840658152739 -0.1715728522557796
256.11945475513625 -13.48764401528442 -0.165445304398055
275.87966798557983 -15.505602920991828 -0.159317710371348
295.64892976412386 -17.641193083336166 -0.15319010620759366
315.42724009700106 -19.889890219687263 -0.1470625011395693
335.21459898688664 -22.247170050473148 -0.14093489651752153
355.0110064345363 -24.70850829676283 -0.13480729219171733
374.8164624400847 -27.269380679677543 -0.12867968797123208
394.63096700353174 -29.9252629203066 -0.12255208377606591
414.45452012486527 -32.67163073971944 -0.11642447958388237
434.2871218040794 -35.5039598589786 -0.11029687539057748
454.12877204117166 -38.41772599914498 -0.10416927119581076
473.9794708361391 -41.40840488127902 -0.09804166700027378
493.83921818897363 -44.471472226438465 -0.09191406281095967
513.708014099736 -47.602403755682815 -0.08578645866250763
533.5858585684307 -50.79667519003162 -0.07965885466912317
553.4727515952277 -54.049762250462955 -0.07353125107278732
573.3686931812946 -57.357140658076574 -0.0674036479168667
593.2736833303877 -60.71428613503631 -0.06127604270108869
613.1877220502204 -64.11667440765089 -0.055148420991444534
633.1108093395851 -67.55978121566257 -0.04902073148711756
653.0429451101115 -71.03908231328121 -0.04289285105947727
672.9841288633214 -74.55005343643052 -0.03676470359290715
692.93435898702 -78.08816947877281 -0.03063724728321266
712.8936307086104 -81.64890142869824 -0.024518570158453785
732.8619342810588 -85.2276910457743 -0.018442423561656048
752.8392088047018 -88.81993013490235 -0.012563918541680185
772.8252022108888 -92.42097836078514 -0.006887245337520563
796.4165961965214 -76.02628556427223 -4.272134886207163e-05
799.9999999999968 -56.0238385539992 1.0749471742156055e-10
803.5834038034819 -36.02628556426552 4.2721563805051575e-05
787.1747977891594 -12.42097836083046 0.006887245544806462
767.1607911953795 -8.81993013499276 0.012563918741267608
747.1380657190559 -5.227691045909481 0.018442423753573977
727.1063692915376 -1.6489014288776787 0.02451857034267708
707.0656410131619 1.911830521003992 0.030637247459672126
687.0158711368942 5.4499465633034845 0.03676470376170982
666.9570548901384 8.960917686411136 0.04289285122069255
646.8891906606991 12.440218783989181 0.04902073164063752
626.8122779500985 15.883325591961778 0.05514842113743562
606.7263166699659 19.28571386453865 0.061276042839500236
586.631306819094 22.642859341462447 0.06740364804778153
566.5272484051959 25.950237749042003 0.07353125119626346
546.4141414320283 29.203324809441234 0.07965885478522405
526.2919859007586 32.39759624376033 0.08578645877139153
506.16078181155586 35.528527772997826 0.09191406291274783
486.02052916442426 38.59159511817495 0.0980416670951096
465.87122795942554 41.582274000327274 0.10416927128386722
445.71287819655157 44.496040140512534 0.11029687547200347
425.5454798757993 47.32836925979107 0.116424479658836
405.36903299716647 50.07473707922372 0.1225520838447251
385.1835375606471 52.730619319873156 0.12867968803380597
364.9889935662291 55.291491702808734 0.1348072922484162
344.7854010139122 57.752829949119686 0.14093489656853914
324.5727599038311 60.110109779927285 0.14706250118515074
304.35107023674163 62.3588069163005 0.1531901062479641
284.1203320152426 64.49439707867515 0.15931771040676285
263.8805452455756 66.51235598441885 0.16544530442881178
243.63170993212515 68.40815934158964 0.17157285228217267
223.37382602684292 70.17728283914693 0.17770025875336912
203.10689321744957 71.81520217667972 0.18382740485194687
182.830910291667 73.3173932735943 0.1899547151192819
162.5458741881302 74.67933344504841 0.1960859100897839
142.2517810727663 75.89650372678243 0.20223686696213194
121.94864768460617 76.96439740190844 0.2084530281584151
101.63659526021577 77.87848711916948 0.21480659597854515
81.31621019068858 78.63418312007747 0.2211262818017106
60.989027061931196 79.22547543170548 0.22579296692805853
40.66015009510555 79.64576171032779 0.21911984258925785
20.330279786775975 79.8716394993075 0.1891649614542304
0.0 60.0 0.0
0.0 40.0 0.0
0.0 20.0 0.0
19.66972021329126 -0.12836050069098412 80.18916496145317
39.339849905023954 -0.3542382896651924 80.21911984258861
59.01097293826684 -0.774524568278148 80.22579296692763
78.68378980958653 -1.3658168798936587 80.22112628180133
98.3634047401334 -2.121512880785855 80.2148065959781
118.05135231578743 -3.035602598026508 80.20845302815788
137.74821892766866 -4.103496273128548 80.2022368669615
157.4541258123459 -5.320666554835268 80.19608591008907
177.1690897088502 -6.682606726258935 80.18995471511847
196.89310678310838 -8.184797823140094 80.18382740485104
216.62617397375544 -9.822717160636651 80.1777002587524
236.36829006851337 -11.591840658155048 80.17157285228112
256.1194547551272 -13.487644015286875 80.16544530442766
275.8796679855703 -15.505602920994416 80.1593177104055
295.64892976411375 -17.641193083338905 80.15319010624654
315.4272400969905 -19.889890219690145 80.14706250118357
335.2145989868756 -22.247170050476225 80.1409348965668
355.0110064345248 -24.708508296766034 80.13480729224652
374.81646244007277 -27.269380679680904 80.12867968803177
394.6309670035194 -29.925262920310107 80.12255208384254
414.4545201248526 -32.671630739723035 80.11642447965652
434.2871218040664 -35.503959858982334 80.11029687546954
454.1287720411583 -38.41772599914886 80.10416927128128
473.9794708361255 -41.408404881283055 80.09804166709237
493.83921818895976 -44.471472226442636 80.09191406290982
513.7080140997219 -47.60240375568714 80.08578645876827
533.5858585684164 -50.796675190036126 80.07965885478184
553.4727515952131 -54.04976225046761 80.07353125119262
573.3686931812799 -57.35714065808127 80.06740364804395
593.2736833303729 -60.71428613504119 80.06127604283542
613.1877220502055 -64.11667440765592 80.05514842113313
633.1108093395701 -67.55978121566771 80.04902073163619
653.0429451100964 -71.03908231328641 80.04289285121605
672.9841288633063 -74.55005343643582 80.0367647037569
692.9343589870048 -78.08816947877808 80.03063724745478
712.8936307085952 -81.64890142870345 80.0245185703376
732.8619342810435 -85.22769104577976 80.01844242374831
752.8392088046866 -88.81993013490788 80.01256391873578
772.8252022108735 -92.42097836079078 80.00688724553929
796.4165961965061 -76.02628556427791 80.00004272156103
799.9999999999816 -56.023838554004925 80.00000000010746
803.5834038034668 -36.026285564271234 79.99995727865391
787.1747977891442 -12.420978360836173 79.99311275466816
767.1607911953644 -8.819930134998401 79.98743608146407
747.1380657190407 -5.227691045915037 79.98155757644408
727.1063692915225 -1.6489014288830504 79.97548142984718
707.0656410131467 1.911830520998734 79.96936275272247
687.0158711368791 5.449946563298241 79.9632352964128
666.9570548901232 8.960917686405963 79.95710714894616
646.8891906606841 12.440218783984264 79.9509792685185
626.8122779500836 15.88332559195689 79.94485157901416
606.726316669951 19.285713864533903 79.93872395730446
586.6313068190792 22.64285934145788 79.93259635208864
566.5272484051814 25.95023774903754 79.92646874893266
546.4141414320139 29.203324809437028 79.92034114533621
526.2919859007444 32.3975962437563 79.91421354134272
506.160781811542 35.52852777299402 79.90808593719414
486.0205291644106 38.59159511817131 79.90195833300467
465.8712279594122 41.58227400032383 79.89583072880896
445.71287819653855 44.496040140509216 79.889703124614
425.5454798757866 47.328369259787905 79.88357552042056
405.3690329971542 50.07473707922077 79.8774479162282
385.18353756063516 52.730619319870364 79.87132031203286
364.98899356621763 55.29149170280611 79.8651927078122
344.78540101390115 57.75282994911727 79.85906510348623
324.57275990382055 60.110109779925054 79.852937498864
304.3510702367316 62.35880691629845 79.84680989379578
284.120332015233 64.4943970786733 79.84068228963184
263.88054524556657 66.51235598441714 79.83455469560495
243.63170993211668 68.40815934158812 79.82842714774702
223.37382602683505 70.17728283914556 79.82229974127152
203.1068932174423 71.81520217667853 79.81617259516896
182.8309102916604 73.3173932735933 79.81004528489794
162.54587418812423 74.67933344504758 79.80391408992408
142.251781072761 75.89650372678176 79.7977631330487
121.94864768460158 76.96439740190796 79.79154697184974
101.63659526021192 77.87848711916918 79.78519340402728
81.31621019068548 78.63418312007735 79.77887371820218
60.98902706192886 79.22547543170553 79.77420703307426
40.66015009510399 79.645761710328 79.7808801574119
20.330279786775193 79.87163949930782 79.81083503854622
0.0 60.0 80.0
0.0 40.0 80.0
0.0 20.0 80.0
0.0 0.0 20.0
0.0 0.0 40.0
0.0 0.0 60.0
792.8166571062914 -96.03182783656756 19.99853799564807
792.816053305833 -96.03272715604517 40.000000000104656
792.8166571062836 -96.0318278365705 60.0014620045613
807.1833428937166 -16.03182783656763 20.00146200456688
807.1839466941672 -16.032727156045155 40.0000000001103
807.183342893709 -16.03182783657053 59.99853799565367
0.0 80.0 20.0
0.0 80.0 40.0
0.0 80.0 60.0
[...]
POINT_DATA 1025
SCALARS CellEntityIds float 1
LOOKUP_TABLE default
0.0
0.24074425986738604
0.24074425986738907
0.0
0.0
0.24074425986740317
0.24074425986740053
0.0
0.001004192891813903
0.0019514360400759035
0.0031908514725120895
0.004774124164724091
0.006720027353169445
0.009033120859295677
0.011712733297831525
0.014754113334865699
0.018149960145209282
0.021891421461382028
0.02596873743662169
0.030371607228835657
0.03508939873915365
0.04011127023476055
0.04542624329606068
0.051023247976365156
0.056891151593606346
0.06301877756074192
0.06939491798467823
0.07600834227096114
0.08284780311215043
0.08990204072813242
0.0971597859169771
0.10460976228269571
0.11224068788449405
0.12004127647358906
0.1280002384319222
0.13610628149301462
0.14434811130194042
0.152714431856604
0.16119394586368405
0.16977535504461094
0.1784473603832527
0.1871986623018334
0.19601795890464727
0.20489393887711976
0.2138152187538368
0.22277030038753623
0.2317476403859368
0.2402328076846061
0.24005959638484575
0.2402328076846063
0.23174764038605278
0.22277030038776477
0.21381521875417708
0.2048939388775705
0.1960179589052072
0.1871986623025002
0.17844736038402348
0.16977535504548305
0.1611939458646537
0.1527144318576677
0.1443481113030938
0.136106281494253
0.12800023843324063
0.12004127647498156
0.11224068788590369
0.1046097622840614
0.09715978591829728
0.08990204072940562
0.08284780311337543
0.0760083422721368
0.06939491798580319
0.06301877756181495
0.05689115159462647
0.051023247977331224
0.04542624329697172
0.04011127023559618
0.03508939873989906
0.030371607229483844
0.02596873743717294
0.021891421461842926
0.018149960145586903
0.014754113335167525
0.011712733298065398
0.009033120859469897
0.0067200273532929235
0.004774124164808187
0.0031908514725647024
0.0019514360401042515
0.0010041928918256926
0.0
0.0
0.0
0.001004192891816179
0.0019514360400805235
0.0031908514725187513
0.0047741241647322715
0.006720027353178736
0.009033120859305802
0.011712733297842311
0.01475411333487703
0.01814996014522104
0.02189142146139414
0.02596873743663416
0.03037160722884839
0.03508939873916666
0.040111270234773795
0.0454262432960742
0.051023247976378895
0.056891151593620445
0.06301877756075619
0.06939491798469274
0.07600834227097587
0.08284780311216525
0.08990204072814742
0.0971597859169923
0.10460976228271114
0.11224068788450964
0.12004127647360487
0.1280002384319383
0.13610628149303095
0.14434811130195666
0.15271443185662056
0.1611939458637008
0.16977535504462785
0.17844736038326955
0.18719866230185037
0.19601795890466397
0.20489393887713617
0.21381521875385368
0.22277030038755313
0.2317476403859538
0.2402328076846217
0.24005959638486007
0.24023280768461922
0.23174764038606402
0.2227703003877757
0.21381521875418769
0.20489393887758045
0.19601795890521673
0.18719866230250948
0.17844736038403244
0.16977535504549118
0.16119394586466157
0.15271443185767508
0.14434811130310052
0.13610628149425927
0.1280002384332461
0.12004127647498643
0.11224068788590782
0.10460976228406492
0.09715978591830016
0.08990204072940798
0.08284780311337722
0.07600834227213793
0.06939491798580372
0.06301877756181487
0.056891151594625704
0.05102324797732984
0.045426243296969745
0.040111270235593556
0.03508939873989591
0.030371607229480138
0.025968737437168685
0.02189142146183818
0.018149960145581633
0.014754113335161814
0.011712733298059313
0.009033120859463539
0.006720027353286474
0.004774124164801921
0.00319085147255906
0.0019514360400998993
0.0010041928918233093
0.0
0.0
0.0
0.0
0.0
0.0
0.24075029043204435
0.24075264504170085
0.2407502904320531
0.240750290432046
0.24075264504170088
0.2407502904320518
0.0
0.0
0.0
0.0004661657966493285
6.808433831272397e-06
0.00046616579665365965
0.0011017529047283568
0.0006105713702751013
0.0011017529047410936
0.0021424489746915227
0.0016692950741433352
0.002142448974716591
0.0036179754543687226
0.0031523231060390992
0.0036179754544098048
0.0055063299306217705
0.00504725525407859
0.0055063299306828285
0.0077917928842678895
0.007339360313829196
0.007791792884354567
0.010461600765407666
0.010016356182338289
0.010461600765524406
0.013504293357733496
0.013066628011189862
0.01350429335788442
0.016908626609062866
0.016478830573736794
0.01690862660925187
0.020663372520631766
0.02024165641076346
0.020663372520862613
0.02475727925116046
0.02434380036365136
0.02475727925143664
0.029179076988252842
0.028773953872471725
0.029179076988577697
0.033917484377085826
0.03352080683565313
0.03391748437745941
0.03896121268092137
0.03857304864949431
0.03896121268134015
0.044298968115086754
0.04391936861177873
0.04429896811554329
0.0499194532811404
0.04954845601423955
0.049919453281624476
0.05581136811943776
0.0554490001547051
0.05581136811994883
0.061963410577864426
0.06160969033441279
0.06196341057840205
0.06836427709403675
0.06801921585575012
0.06836427709460025
0.0750026629486703
0.07466626602136356
0.07500266294925924
0.08186726252791161
0.08153953013392516
0.08186726252852518
0.08894676952054495
0.0886276974960974
0.08894676952118268
0.09622987706810258
0.09591945741053418
0.09622987706876376
0.10370527788053452
0.10340349917988298
0.10370527788121853
0.11136166432640544
0.11106851210678119
0.11136166432711139
0.11918772850407025
0.11890318549385703
0.11918772850476748
0.1271721622984645
0.12689620864379403
0.12717216229912448
0.1353036574271692
0.13503627085969797
0.13530365742778902
0.14357090547878382
0.14331206144634237
0.14357090547936102
0.15196259794624467
0.15171226971311944
0.1519625979467767
0.16046742625638558
0.16022558497487946
0.1604674262568704
0.16907408177883607
0.16884069652592332
0.16907408177927213
0.17777125574763175
0.1775462934406367
0.17777125574801705
0.18654763869893118
0.18633106381752612
0.18654763869926438
0.1953919187337899
0.19518369203557243
0.19539191873406925
0.20429277369387047
0.20409285640895727
0.20429277369409538
0.21323886175827303
0.2130472418706493
0.21323886175844223
0.22221877056423409
0.22203568128642856
0.22221877056434752
0.23122117239270437
0.23104689908634124
0.2312211723927616
0.000907138540388485
0.0009223120334594775
0.0009071385403896857
0.001971419598647954
0.001979255009986332
0.001971419598650335
0.003282657875249633
0.0033126709005096167
0.0032826578752529673
0.0049045940231650575
0.004946432813073096
0.00490459402316912
0.006869139591558921
0.00691745923199804
0.006869139591563539
0.009191529245536666
0.009242950258076761
0.00919152924554171
0.011875405149370681
0.011928228091400803
0.011875405149376054
0.014918012099910795
0.014971241935413748
0.014918012099916436
0.01831309997798863
0.018366101176146815
0.018313099977994497
0.02205245624875414
0.022104795537025677
0.02205245624876021
0.026126732667677028
0.026178106041739636
0.02612673266768322
0.030525900995849398
0.030576090692847013
0.03052590099585578
0.03523951302167955
0.03528836029879559
0.03523951302168607
0.04025685343165838
0.040304240594831786
0.04025685343166502
0.045567032396304996
0.045612870784692096
0.04556703239631174
0.05115904321527464
0.05120326504910002
0.05115904321528151
0.05702179914654387
0.05706435190989594
0.05702179914655089
0.06314415750373722
0.06318500000884314
0.06314415750374436
0.06951493577224933
0.06955403535667956
0.06951493577225652
0.07612292260658989
0.0761602531064765
0.07612292260659723
0.08295688547471365
0.08299242573822302
0.082956885474721
0.09000557606276949
0.09003930884547624
0.09000557606277697
0.09725773415683822
0.09728964529091268
0.09725773415684587
0.10470209047163637
0.10473216823394695
0.10470209047164408
0.11232736873990234
0.11235560336639998
0.11232736873991021
0.12012228727535451
0.1201486705842672
0.12012228727536242
0.12807556015574686
0.12810008525257735
0.12807556015575497
0.13617589812868022
0.1361985591732903
0.13617589812868836
0.14441200931279383
0.1444328013338093
0.144412009312802
0.15277259974648033
0.1527915184915005
0.15277259974648866
0.16124637382163068
0.16126341563234187
0.16124637382163903
0.16982203462951231
0.16983719633764552
0.16982203462952056
0.17848828421920723
0.17850156306799617
0.17848828421921573
0.18723382380441692
0.1872452176296525
0.18723382380442516
0.19604735334682863
0.19605686161932012
0.19604735334683687
0.204917570858196
0.20492520016172625
0.20491757085820436
0.21383315239223666
0.2138389276891899
0.21383315239224512
0.22278278890601255
0.22278678990819856
0.22278278890602102
0.2317554065218708
0.23175810263210778
0.23175540652187937
0.2402384126962702
0.2402413339426246
0.24023841269627833
0.24006470886177983
0.24006804123148362
0.24006470886178718
0.24023841269626983
0.24024133394262356
0.24023841269627655
0.23175540652198534
0.23175810263222069
0.23175540652199092
0.22278278890623932
0.22278678990842396
0.22278278890624492
0.21383315239257528
0.2138389276895268
0.21383315239258047
0.20491757085864507
0.20492520016217375
0.20491757085864998
0.1960473533473863
0.19605686161987596
0.19604735334739115
0.1872338238050813
0.18724521763031501
0.18723382380508585
0.17848828421997578
0.17850156306876264
0.17848828421998025
0.16982203463038156
0.16983719633851274
0.16982203463038595
0.16124637382259752
0.16126341563330637
0.16124637382260157
0.15277259974754098
0.15279151849255865
0.1527725997475447
0.14441200931394393
0.14443280133495684
0.14441200931394724
0.1361758981299153
0.13619855917452242
0.13617589812991832
0.12807556015706165
0.12810008525388916
0.12807556015706442
0.12012228727674343
0.12014867058565296
0.12012228727674577
0.11232736874130811
0.11235560336780258
0.11232736874131019
0.1047020904729981
0.10473216823530529
0.10470209047299983
0.09725773415815436
0.09728964529222539
0.09725773415815586
0.09000557606403857
0.09003930884674191
0.09000557606403978
0.08295688547593441
0.0829924257394403
0.08295688547593533
0.07612292260776114
0.07616025310764421
0.0761229226077617
0.06951493577336983
0.06955403535779632
0.06951493577337017
0.0631441575048058
0.06318500000990786
0.06314415750480581
0.05702179914755945
0.057064351910907564
0.057021799147559116
0.05115904321623609
0.05120326505005743
0.051159043216235434
0.04556703239721138
0.04561287078559441
0.04556703239721043
0.04025685343248933
0.04030424059565853
0.04025685343248808
0.035239513022420246
0.03528836029953202
0.03523951302241871
0.03052590099649293
0.030576090693486255
0.030525900996491145
0.026126732668223653
0.026178106042282014
0.026126732668221624
0.0220524562492105
0.022104795537477774
0.022052456249208218
0.018313099978361804
0.018366101176515742
0.018313099978359296
0.014918012100208315
0.014971241935707088
0.014918012100205585
0.011875405149600476
0.011928228091626532
0.011875405149597581
0.00919152924570712
0.009242950258243331
0.009191529245704112
0.006869139591679083
0.0069174592321146295
0.006869139591676059
0.00490459402324659
0.0049464328131515346
0.004904594023243685
0.003282657875300819
0.0033126709005583733
0.0032826578752982428
0.0019714195986760305
0.001979255010012592
0.0019714195986740646
0.0009071385403997302
0.0009223120334696138
0.0009071385403987248
0.0
0.0
0.0
0.0
0.0
0.0
0.0
0.0
0.0
0.0004661657966513645
6.8084338316744435e-06
0.000466165796651392
0.0011017529047325496
0.0006105713702758861
0.0011017529047374986
0.002142448974696875
0.001669295074144522
0.002142448974712871
0.0036179754543747534
0.003152323106040694
0.0036179754544063795
0.005506329930628304
0.005047255254080587
0.005506329930679825
0.007791792884274847
0.007339360313831605
0.00779179288435203
0.01046160076541501
0.010016356182341115
0.010461600765522362
0.013504293357741223
0.0130666280111931
0.01350429335788288
0.016908626609070908
0.016478830573740423
0.016908626609250826
0.020663372520640128
0.020241656410767497
0.020663372520862085
0.024757279251169134
0.0243438003636558
0.0247572792514366
0.029179076988261835
0.02877395387247654
0.02917907698857815
0.03391748437709509
0.03352080683565833
0.03391748437746034
0.03896121268093091
0.03857304864949987
0.03896121268134157
0.04429896811509658
0.04391936861178471
0.04429896811554523
0.04991945328115062
0.049548456014245935
0.04991945328162697
0.05581136811944832
0.05544900015471195
0.05581136811995186
0.06196341057787527
0.06160969033442004
0.06196341057840561
0.06836427709404794
0.06801921585575785
0.06836427709460435
0.07500266294868176
0.0746662660213716
0.07500266294926382
0.08186726252792333
0.08153953013393361
0.08186726252853024
0.08894676952055688
0.0886276974961063
0.08894676952118823
0.0962298770681148
0.09591945741054325
0.09622987706876973
0.10370527788054712
0.10340349917989257
0.10370527788122501
0.11136166432641831
0.11106851210679118
0.11136166432711844
0.11918772850408332
0.11890318549386755
0.11918772850477515
0.127172162298478
0.12689620864380488
0.12717216229913267
0.13530365742718303
0.13503627085970926
0.13530365742779785
0.1435709054787978
0.14331206144635397
0.14357090547937018
0.15196259794625902
0.1517122697131316
0.1519625979467865
0.16046742625640015
0.16022558497489198
0.16046742625688062
0.16907408177885094
0.1688406965259361
0.16907408177928257
0.17777125574764674
0.1775462934406497
0.1777712557480281
0.1865476386989462
0.18633106381753933
0.18654763869927554
0.1953919187338047
0.1951836920355855
0.19539191873408057
0.20429277369388532
0.20409285640897062
0.20429277369410703
0.2132388617582881
0.21304724187066296
0.21323886175845447
0.2222187705642494
0.22203568128644247
0.22221877056436
0.23122117239272005
0.23104689908635528
0.23122117239277418
0.0004119303796504577
0.00041613204741697816
0.00041193037965140593
0.00014730046659775694
0.0001770063136602723
0.00014730046659795022
0.0004119303796543377
0.0004161320474201424
0.0004119303796534981
0.0011879594769108716
0.0012172641248098669
0.0011879594769128464
0.0007955393679379458
0.0008525021826885743
0.000795539367938338
0.0011879594769225654
0.0012172641248201542
0.0011879594769210768
0.0022971854266697943
0.002346639789314114
0.0022971854266723574
0.001871620584534372
0.0019368373910173238
0.001871620584534967
0.0022971854266931025
0.0023466397893355372
0.0022971854266914706
0.0037957806216112103
0.0038542098130837656
0.0037957806216141416
0.003355752004613654
0.0034233827518668535
0.0033557520046144525
0.003795780621650099
0.003854209813120525
0.003795780621648546
0.0056903678557620185
0.005751277369487504
0.005690367855765223
0.0052464881348395775
0.005313458367348703
0.00524648813484058
0.0056903678558206895
0.0057512773695439145
0.005690367855819299
0.007975867791849183
0.008036926415574287
0.007975867791852626
0.007533081126596553
0.007598381029953459
0.00753308112659776
0.007975867791933395
0.008036926415656183
0.007975867791932208
0.01064326674242737
0.010703530387881207
0.010643266742431013
0.010204337874092128
0.010267744903934495
0.010204337874093534
0.010643266742541605
0.01070353038799311
0.010643266742540652
0.013682354640399703
0.013741413869740206
0.013682354640403524
0.013248880766919864
0.013310357176761612
0.013248880766921475
0.013682354640548088
0.013741413869886266
0.013682354640547366
0.017082399902198505
0.017140031769855395
0.017082399902202516
0.016655375457550567
0.016714924616938374
0.01665537545755239
0.017082399902384988
0.017140031770039546
0.017082399902384516
0.02083242776184676
0.020888494310679795
0.020832427761850937
0.020412503221176593
0.020470129174019278
0.020412503221178605
0.02083242776207508
0.020888494310905854
0.020832427762074848
0.02492133313549299
0.024975742443935595
0.02492133313549731
0.024508951854309832
0.02456465640487381
0.024508951854312046
0.02492133313576667
0.02497574244420701
0.024921333135766673
0.029337937076977978
0.02939062590270201
0.029337937076982443
0.028933410551167327
0.02898719418673189
0.02893341055116974
0.0293379370773003
0.029390625903022077
0.029337937077300553
0.03407101655720784
0.034121940354025396
0.034071016557212494
0.033674568701918296
0.0337264315082023
0.03367456870192088
0.03407101655757892
0.03412194035439428
0.0340710165575794
0.03910932122857285
0.039158447959356635
0.03910932122857764
0.038721115659774444
0.03877105763436848
0.03872111565977719
0.0391093212289892
0.03915844795977076
0.039109321228989906
0.044441583210902434
0.04448888937118752
0.04444158321090737
0.044061740744603305
0.04410976187909883
0.044061740744606274
0.044441583211356515
0.044488889371639535
0.04444158321135749
0.05005652301323859
0.05010199104068764
0.05005652301324368
0.049685133263001426
0.04973123355344756
0.049685133263004645
0.0500565230137203
0.05010199104116724
0.05005652301372153
0.055942853236651734
0.05598646979251275
0.055942853236656986
0.05557998251805074
0.0556241619632688
0.05557998251805418
0.05594285323716045
0.05598646979301948
0.05594285323716197
0.062089280962066506
0.06213103576782883
0.06208928096207194
0.061734977812262344
0.06177723641202077
0.061734977812265994
0.06208928096260185
0.062131035768362194
0.06208928096260366
0.0684845093335613
0.06852439436673209
0.06848450933356687
0.06813880844818265
0.06817914620247222
0.06813880844818646
0.06848450933412253
0.06852439436729141
0.06848450933412462
0.07511723863456968
0.07515524756167416
0.07511723863457542
0.07478016372842436
0.07481858063726071
0.07478016372842844
0.07511723863515635
0.07515524756225894
0.07511723863515866
0.08197616703574609
0.08201229480540054
0.08197616703575189
0.08164773295562965
0.0816842290190211
0.0816477329556339
0.08197616703635743
0.08201229480601017
0.08197616703636003
0.08904999112507545
0.0890842336712505
0.08904999112508136
0.08873020543244882
0.08876478065039826
0.08873020543245318
0.089049991125711
0.08908423367188437
0.0890499911257138
0.09632740629044884
0.09635976031295773
0.09632740629045494
0.09601627046153353
0.09604892483404265
0.09601627046153809
0.09632740629110795
0.09635976031361515
0.09632740629111096
0.10379710700034875
0.1038275698003388
0.10379710700035509
0.1034946173455359
0.10352535087260889
0.10349461734554068
0.10379710700103076
0.10382756980101898
0.10379710700103399
0.11144778701294072
0.11147635636813634
0.11144778701294718
0.11115393538711041
0.11118274806875866
0.11115393538711549
0.11144778701364459
0.11147635636883872
0.11144778701364814
0.11926813953408355
0.11929481360313979
0.11926813953409009
0.11898291388892451
0.11900980572516605
0.11898291388892972
0.11926813953477884
0.11929481360383355
0.11926813953478266
0.12724685733830984
0.12727163458671584
0.12724685733831664
0.12697024215368669
0.12699521314448706
0.12697024215369218
0.127246857338968
0.1272716345873726
0.1272468573389721
0.13537263286271706
0.13539551200471336
0.13537263286272389
0.135104609484188
0.13512765962916173
0.13510460948419353
0.13537263286333523
0.13539551200532993
0.13537263286333948
0.14363415828066467
0.14365513823289805
0.14363415828067175
0.14337470518320056
0.14339583448056945
0.14337470518320639
0.1436341582812403
0.14365513823347237
0.14363415828124484
0.15202012555974453
0.15203920540310048
0.1520201255597517
0.15176921855251074
0.1517884269970109
0.1517692185525168
0.15202012556027508
0.15203920540362972
0.15202012556027994
0.16051922650634137
0.16053640545567507
0.16051922650634873
0.16027683888836786
0.16029412647050953
0.16027683888837407
0.16051922650682485
0.16053640545615727
0.16051922650682998
0.16912015279503045
0.16913543018728588
0.1691201527950378
0.16888625546827926
0.1689016222018178
0.16888625546828565
0.16912015279546497
0.16913543018771962
0.16912015279547046
0.17781159599134758
0.17782497137657396
0.17781159599135504
0.17758615751298287
0.1775996035754463
0.1775861575129893
0.1778115959917318
0.17782497137695713
0.1778115959917372
0.18658224756726235
0.1865937211098319
0.1865822475672698
0.18636523416401818
0.18637676056780106
0.18636523416402487
0.18658224756759442
0.186593721110163
0.1865822475676
0.19542079933775405
0.1954303736473676
0.1954207993377613
0.19521217449838152
0.19522178478756555
0.19521217449838807
0.19542079933803244
0.19543037364764498
0.1954207993380382
0.2043159439528371
0.2043236278699697
0.20431594395284447
0.2041156719837463
0.20412337874707315
0.2041156719837528
0.204315943953061
0.20432362787019287
0.20431594395306668
0.21325638670198072
0.2132622103486987
0.21325638670198838
0.21306444698903867
0.2130702847687501
0.21306444698904545
0.2132563867021493