# vtk DataFile Version 2.0
mesh vtk view
ASCII
DATASET UNSTRUCTURED_GRID
POINTS 1025 double
0.0 0.0 0.0
794.4948492123771 -73.62270225873507 -0.001744931256993879
805.5051507876346 6.377297741264883 0.001744931421756814
0.0 80.0 0.0
0.0 0.0 80.0
794.4948492123654 -73.62270225873945 80.00174493141752
805.505150787623 6.377297741260492 79.9982550687473
0.0 80.0 80.0
19.746785496838964 -0.09840971719596885 -0.14502647044730532
39.493884927148436 -0.2715826887426788 -0.16799187931752152
59.241745919283915 -0.5938021690124742 -0.1731079413101333
78.99090552061368 -1.0471262745842511 -0.1695301493790201
98.74527696735028 -1.6264932086014892 -0.1646850569132976
118.5060367753287 -2.3272953251525457 -0.15981398824959944
138.27363451108062 -3.146013809397327 -0.15504826466390442
158.0481631226428 -4.0791776920390275 -0.15033253105963124
177.82963544327242 -5.1233318234637295 -0.14563194824651365
197.61804853351327 -6.275011664405847 -0.1409343437055737
217.41340004631894 -7.530749823153089 -0.13623686502712243
237.21568905227625 -8.887077837917094 -0.13153918672943093
257.02491531199547 -10.340527078384715 -0.12684140003850874
276.84107878866126 -11.887628906093727 -0.12214357795136674
296.6641794855373 -13.524914697224386 -0.1174457480924884
316.49421740740223 -15.248915835093559 -0.1127479175403364
336.3311925563069 -17.056163705362735 -0.10805008733009978
356.17510493283066 -18.943189694184824 -0.10335225734698321
376.02595453707676 -20.90652518775277 -0.0986544274446112
395.8837413690452 -22.942701572235045 -0.09395659756165048
415.7484654287266 -25.048250233784888 -0.08925876768097642
435.6201267161165 -27.219702558550242 -0.08456093779944267
455.4987252312129 -29.453589932677797 -0.0798631079167882
475.3842609740136 -31.746443742313893 -0.07516527803354318
495.2767339445125 -34.0947953736028 -0.07046744815506903
515.1761441427736 -36.49517621269013 -0.06576961830792247
535.0824915687984 -38.94411764569088 -0.06107178857966106
554.9957762227016 -41.43815105868824 -0.05637395915580358
574.9159981053784 -43.97380783785868 -0.05167613006959777
594.8431572197087 -46.547619370194475 -0.046978299404167964
614.7772535716059 -49.15611704586565 -0.042280456093440784
634.7182871601444 -51.79583226534127 -0.0375825608067901
654.6662579175735 -54.46329644018223 -0.03288451914559922
674.6211654617266 -57.15504096793003 -0.028186272754562126
694.5830085565877 -59.86759660039245 -0.023488556250463026
714.5517835431659 -62.59749109533528 -0.018797570454814557
734.5274829487352 -65.34122980176026 -0.014139191397269628
754.5100600835538 -68.09527977009176 -0.009632337548621469
774.4993216949892 -70.85608340993524 -0.005280221425432429
797.2527237506664 -53.62015226595065 -3.275303412758823e-05
799.9999999999976 -33.618276224746865 8.241261668986304e-11
802.7472762493361 -13.620152265943943 3.275319891720619e-05
785.5006783050553 9.143916590030031 0.005280221584351617
765.4899399165239 11.90472022983893 0.009632337701638493
745.4725170513757 14.65877019813611 0.014139191544406708
725.4482164569781 17.402508904527153 0.018797570596052415
705.41699144359 20.132403399436434 0.023488556385748614
685.3788345384845 22.84495903186604 0.02818627288397751
665.3337420826715 25.53670355958191 0.032884519269197596
645.2817128401346 28.20416773439174 0.03758256092448874
625.2227464287073 30.843882953837394 0.04228045620536728
605.1568427806387 33.45238062947966 0.04697829951028348
585.0840018950034 36.026192161787904 0.051676130169965806
565.0042237777147 38.56184894093223 0.05637395925046862
544.9175084316527 41.05588235390498 0.06107178866867173
524.8238558577125 43.504823786882945 0.06576961839140014
504.723266056008 45.90520462596503 0.07046744823310662
484.61573902654044 48.25355625726748 0.07516527810625064
464.5012747693748 50.5464100669176 0.07986310798429815
444.37987328450475 52.78029744105963 0.08456093786186926
424.25153457192795 54.951749765839836 0.08925876773844087
404.11625863164284 57.057298427404874 0.09395659761428918
383.97404546364464 59.093474811902766 0.0986544274925845
363.8248950679242 61.05681030548671 0.10335225739045234
343.6688074444812 62.9438362943251 0.10805008736921326
323.5057825934191 64.75108416461093 0.11274791757528216
303.33582051531715 66.47508530249706 0.11744574812343905
283.1589212121502 68.11237109365096 0.12214357797851812
262.9750846887057 69.65947292138779 0.12684140006208897
242.7843109483605 71.1129221618854 0.13153918674966564
222.5865999542777 72.46925017667931 0.13623686504424956
202.38195146704294 73.72498833545446 0.14093434371982586
182.17036455724318 74.8766681764223 0.145631948258116
161.95183687783177 75.92082230787045 0.1503325310688342
141.72636548935293 76.85398619053319 0.15504826467096774
121.4939632250637 77.67270467479648 0.1598139882547848
101.25472303299787 78.37350679136327 0.1646850569168845
81.00909447966055 78.95287372539273 0.16953014938131136
60.758254080913396 79.40619783097421 0.17310794131151144
40.50611507298057 79.7284173112513 0.1679918793184309
20.253214503228072 79.90159028280243 0.1450264704482432
0.0 60.0 0.0
0.0 40.0 0.0
0.0 20.0 0.0
19.746785496838363 -0.0984097171964211 80.14502647044743
39.49388492714724 -0.271582688743314 80.16799187931794
59.241745919282124 -0.5938021690132463 80.17310794131119
78.99090552061129 -1.0471262745851375 80.16953014938102
98.74527696734731 -1.6264932086024877 80.16468505691654
118.50603677532517 -2.3272953251536546 80.15981398825437
138.27363451107655 -3.1460138093985512 80.15504826467048
158.04816312263821 -4.0791776920403695 80.15033253106829
177.82963544326734 -5.12333182346518 80.14563194825749
197.6180485335077 -6.275011664407402 80.14093434371914
217.41340004631292 -7.530749823154761 80.1362368650435
237.21568905226977 -8.887077837918865 80.13153918674885
257.02491531198854 -10.340527078386597 80.12684140006121
276.8410787886539 -11.887628906095712 80.12214357797755
296.6641794855296 -13.524914697226485 80.11744574812235
316.4942174073941 -15.248915835095767 80.11274791757407
336.33119255629845 -17.056163705365094 80.10805008736789
356.17510493282185 -18.94318969418728 80.10335225738899
376.02595453706766 -20.906525187755346 80.09865442749103
395.88374136903576 -22.942701572237734 80.09395659761262
415.7484654287169 -25.048250233787645 80.08925876773667
435.62012671610654 -27.219702558553106 80.08456093785998
455.4987252312027 -29.45358993268077 80.07986310798232
475.3842609740032 -31.746443742316988 80.07516527810415
495.27673394450187 -34.094795373606 80.07046744823086
515.1761441427628 -36.49517621269345 80.065769618389
535.0824915687874 -38.944117645694334 80.06107178866607
554.9957762226904 -41.43815105869181 80.05637395924768
574.9159981053672 -43.97380783786228 80.05167613016702
594.8431572196973 -46.54761937019822 80.04697829950716
614.7772535715945 -49.15611704586951 80.04228045620206
634.718287160133 -51.79583226534522 80.03758256092108
654.666257917562 -54.46329644018621 80.03288451926564
674.621165461715 -57.15504096793409 80.02818627288029
694.5830085565761 -59.867596600396496 80.02348855638199
714.5517835431542 -62.59749109533928 80.01879757059216
734.5274829487234 -65.34122980176444 80.01413919154037
754.510060083542 -68.095279770096 80.00963233769743
774.4993216949775 -70.85608340993956 80.00528022158012
797.2527237506547 -53.620152265955014 80.00003275319679
799.9999999999859 -33.618276224751256 80.0000000000824
802.7472762493245 -13.62015226594832 79.999967246968
785.5006783050437 9.143916590025654 79.99471977857893
765.4899399165123 11.90472022983461 79.99036766245578
745.472517051364 14.658770198131847 79.98586080860713
725.4482164569665 17.40250890452304 79.98120242954951
705.4169914435782 20.1324033994324 79.97651144375389
685.3788345384729 22.844959031862025 79.97181372724982
665.3337420826599 25.536703559577944 79.96711548085872
645.2817128401231 28.204167734387966 79.96241743919751
625.2227464286958 30.84388295383365 79.95771954391084
605.1568427806274 33.45238062947602 79.95302170060009
585.0840018949922 36.0261921617844 79.94832386993463
565.0042237777036 38.56184894092881 79.94362604084837
544.9175084316417 41.05588235390175 79.93892821142443
524.8238558577016 43.504823786879854 79.93423038169608
504.7232660559974 45.9052046259621 79.92953255184884
484.61573902653004 48.25355625726469 79.92483472197024
464.50127476936456 50.54641006691496 79.92013689208687
444.37987328449475 52.78029744105709 79.91543906220407
424.2515345719182 54.951749765837405 79.91074123232244
404.1162586316334 57.0572984274026 79.90604340244163
383.9740454636355 59.09347481190062 79.90134557255853
363.82489506791535 61.0568103054847 79.89664774265601
343.66880744447275 62.94383629432325 79.89194991267277
323.50578259341097 64.75108416460922 79.8872520824624
303.3358205153094 66.47508530249549 79.8825542519101
283.15892121214284 68.11237109364954 79.87785642205108
262.97508468869876 69.65947292138648 79.87315859996379
242.78431094835403 71.11292216188423 79.8684608132727
222.58659995427163 72.46925017667827 79.86376313497483
202.38195146703737 73.72498833545353 79.85906565629621
182.1703645572381 74.87666817642153 79.85436805175509
161.95183687782716 75.92082230786981 79.84966746894179
141.7263654893489 76.85398619053268 79.84495173533735
121.49396322506017 77.67270467479611 79.84018601175147
101.25472303299492 78.37350679136304 79.83531494308758
81.00909447965817 78.95287372539264 79.83046985062167
60.7582540809116 79.40619783097425 79.82689205869026
40.50611507297937 79.72841731125146 79.83200812068246
20.253214503227472 79.90159028280266 79.8549735295521
0.0 60.0 80.0
0.0 40.0 80.0
0.0 20.0 80.0
0.0 0.0 20.0
0.0 0.0 40.0
0.0 0.0 60.0
794.4927704481566 -73.62440134136841 19.998879129996855
794.4923075344719 -73.62509081963458 40.000000000080234
794.4927704481507 -73.62440134137067 60.00112087016366
805.5072295518494 6.375598658631532 20.00112087016794
805.5076924655282 6.374909180365435 40.00000000008456
805.5072295518436 6.375598658629315 59.99887913000114
0.0 80.0 20.0
0.0 80.0 40.0
0.0 80.0 60.0
[...]
POINT_DATA 1025
SCALARS CellEntityIds float 1
LOOKUP_TABLE default
0.0
0.24074425986738604
0.24074425986738907
0.0
0.0
0.24074425986740317
0.24074425986740053
0.0
0.001004192891813903
0.0019514360400759035
0.0031908514725120895
0.004774124164724091
0.006720027353169445
0.009033120859295677
0.011712733297831525
0.014754113334865699
0.018149960145209282
0.021891421461382028
0.02596873743662169
0.030371607228835657
0.03508939873915365
0.04011127023476055
0.04542624329606068
0.051023247976365156
0.056891151593606346
0.06301877756074192
0.06939491798467823
0.07600834227096114
0.08284780311215043
0.08990204072813242
0.0971597859169771
0.10460976228269571
0.11224068788449405
0.12004127647358906
0.1280002384319222
0.13610628149301462
0.14434811130194042
0.152714431856604
0.16119394586368405
0.16977535504461094
0.1784473603832527
0.1871986623018334
0.19601795890464727
0.20489393887711976
0.2138152187538368
0.22277030038753623
0.2317476403859368
0.2402328076846061
0.24005959638484575
0.2402328076846063
0.23174764038605278
0.22277030038776477
0.21381521875417708
0.2048939388775705
0.1960179589052072
0.1871986623025002
0.17844736038402348
0.16977535504548305
0.1611939458646537
0.1527144318576677
0.1443481113030938
0.136106281494253
0.12800023843324063
0.12004127647498156
0.11224068788590369
0.1046097622840614
0.09715978591829728
0.08990204072940562
0.08284780311337543
0.0760083422721368
0.06939491798580319
0.06301877756181495
0.05689115159462647
0.051023247977331224
0.04542624329697172
0.04011127023559618
0.03508939873989906
0.030371607229483844
0.02596873743717294
0.021891421461842926
0.018149960145586903
0.014754113335167525
0.011712733298065398
0.009033120859469897
0.0067200273532929235
0.004774124164808187
0.0031908514725647024
0.0019514360401042515
0.0010041928918256926
0.0
0.0
0.0
0.001004192891816179
0.0019514360400805235
0.0031908514725187513
0.0047741241647322715
0.006720027353178736
0.009033120859305802
0.011712733297842311
0.01475411333487703
0.01814996014522104
0.02189142146139414
0.02596873743663416
0.03037160722884839
0.03508939873916666
0.040111270234773795
0.0454262432960742
0.051023247976378895
0.056891151593620445
0.06301877756075619
0.06939491798469274
0.07600834227097587
0.08284780311216525
0.08990204072814742
0.0971597859169923
0.10460976228271114
0.11224068788450964
0.12004127647360487
0.1280002384319383
0.13610628149303095
0.14434811130195666
0.15271443185662056
0.1611939458637008
0.16977535504462785
0.17844736038326955
0.18719866230185037
0.19601795890466397
0.20489393887713617
0.21381521875385368
0.22277030038755313
0.2317476403859538
0.2402328076846217
0.24005959638486007
0.24023280768461922
0.23174764038606402
0.2227703003877757
0.21381521875418769
0.20489393887758045
0.19601795890521673
0.18719866230250948
0.17844736038403244
0.16977535504549118
0.16119394586466157
0.15271443185767508
0.14434811130310052
0.13610628149425927
0.1280002384332461
0.12004127647498643
0.11224068788590782
0.10460976228406492
0.09715978591830016
0.08990204072940798
0.08284780311337722
0.07600834227213793
0.06939491798580372
0.06301877756181487
0.056891151594625704
0.05102324797732984
0.045426243296969745
0.040111270235593556
0.03508939873989591
0.030371607229480138
0.025968737437168685
0.02189142146183818
0.018149960145581633
0.014754113335161814
0.011712733298059313
0.009033120859463539
0.006720027353286474
0.004774124164801921
0.00319085147255906
0.0019514360400998993
0.0010041928918233093
0.0
0.0
0.0
0.0
0.0
0.0
0.24075029043204435
0.24075264504170085
0.2407502904320531
0.240750290432046
0.24075264504170088
0.2407502904320518
0.0
0.0
0.0
0.0004661657966493285
6.808433831272397e-06
0.00046616579665365965
0.0011017529047283568
0.0006105713702751013
0.0011017529047410936
0.0021424489746915227
0.0016692950741433352
0.002142448974716591
0.0036179754543687226
0.0031523231060390992
0.0036179754544098048
0.0055063299306217705
0.00504725525407859
0.0055063299306828285
0.0077917928842678895
0.007339360313829196
0.007791792884354567
0.010461600765407666
0.010016356182338289
0.010461600765524406
0.013504293357733496
0.013066628011189862
0.01350429335788442
0.016908626609062866
0.016478830573736794
0.01690862660925187
0.020663372520631766
0.02024165641076346
0.020663372520862613
0.02475727925116046
0.02434380036365136
0.02475727925143664
0.029179076988252842
0.028773953872471725
0.029179076988577697
0.033917484377085826
0.03352080683565313
0.03391748437745941
0.03896121268092137
0.03857304864949431
0.03896121268134015
0.044298968115086754
0.04391936861177873
0.04429896811554329
0.0499194532811404
0.04954845601423955
0.049919453281624476
0.05581136811943776
0.0554490001547051
0.05581136811994883
0.061963410577864426
0.06160969033441279
0.06196341057840205
0.06836427709403675
0.06801921585575012
0.06836427709460025
0.0750026629486703
0.07466626602136356
0.07500266294925924
0.08186726252791161
0.08153953013392516
0.08186726252852518
0.08894676952054495
0.0886276974960974
0.08894676952118268
0.09622987706810258
0.09591945741053418
0.09622987706876376
0.10370527788053452
0.10340349917988298
0.10370527788121853
0.11136166432640544
0.11106851210678119
0.11136166432711139
0.11918772850407025
0.11890318549385703
0.11918772850476748
0.1271721622984645
0.12689620864379403
0.12717216229912448
0.1353036574271692
0.13503627085969797
0.13530365742778902
0.14357090547878382
0.14331206144634237
0.14357090547936102
0.15196259794624467
0.15171226971311944
0.1519625979467767
0.16046742625638558
0.16022558497487946
0.1604674262568704
0.16907408177883607
0.16884069652592332
0.16907408177927213
0.17777125574763175
0.1775462934406367
0.17777125574801705
0.18654763869893118
0.18633106381752612
0.18654763869926438
0.1953919187337899
0.19518369203557243
0.19539191873406925
0.20429277369387047
0.20409285640895727
0.20429277369409538
0.21323886175827303
0.2130472418706493
0.21323886175844223
0.22221877056423409
0.22203568128642856
0.22221877056434752
0.23122117239270437
0.23104689908634124
0.2312211723927616
0.000907138540388485
0.0009223120334594775
0.0009071385403896857
0.001971419598647954
0.001979255009986332
0.001971419598650335
0.003282657875249633
0.0033126709005096167
0.0032826578752529673
0.0049045940231650575
0.004946432813073096
0.00490459402316912
0.006869139591558921
0.00691745923199804
0.006869139591563539
0.009191529245536666
0.009242950258076761
0.00919152924554171
0.011875405149370681
0.011928228091400803
0.011875405149376054
0.014918012099910795
0.014971241935413748
0.014918012099916436
0.01831309997798863
0.018366101176146815
0.018313099977994497
0.02205245624875414
0.022104795537025677
0.02205245624876021
0.026126732667677028
0.026178106041739636
0.02612673266768322
0.030525900995849398
0.030576090692847013
0.03052590099585578
0.03523951302167955
0.03528836029879559
0.03523951302168607
0.04025685343165838
0.040304240594831786
0.04025685343166502
0.045567032396304996
0.045612870784692096
0.04556703239631174
0.05115904321527464
0.05120326504910002
0.05115904321528151
0.05702179914654387
0.05706435190989594
0.05702179914655089
0.06314415750373722
0.06318500000884314
0.06314415750374436
0.06951493577224933
0.06955403535667956
0.06951493577225652
0.07612292260658989
0.0761602531064765
0.07612292260659723
0.08295688547471365
0.08299242573822302
0.082956885474721
0.09000557606276949
0.09003930884547624
0.09000557606277697
0.09725773415683822
0.09728964529091268
0.09725773415684587
0.10470209047163637
0.10473216823394695
0.10470209047164408
0.11232736873990234
0.11235560336639998
0.11232736873991021
0.12012228727535451
0.1201486705842672
0.12012228727536242
0.12807556015574686
0.12810008525257735
0.12807556015575497
0.13617589812868022
0.1361985591732903
0.13617589812868836
0.14441200931279383
0.1444328013338093
0.144412009312802
0.15277259974648033
0.1527915184915005
0.15277259974648866
0.16124637382163068
0.16126341563234187
0.16124637382163903
0.16982203462951231
0.16983719633764552
0.16982203462952056
0.17848828421920723
0.17850156306799617
0.17848828421921573
0.18723382380441692
0.1872452176296525
0.18723382380442516
0.19604735334682863
0.19605686161932012
0.19604735334683687
0.204917570858196
0.20492520016172625
0.20491757085820436
0.21383315239223666
0.2138389276891899
0.21383315239224512
0.22278278890601255
0.22278678990819856
0.22278278890602102
0.2317554065218708
0.23175810263210778
0.23175540652187937
0.2402384126962702
0.2402413339426246
0.24023841269627833
0.24006470886177983
0.24006804123148362
0.24006470886178718
0.24023841269626983
0.24024133394262356
0.24023841269627655
0.23175540652198534
0.23175810263222069
0.23175540652199092
0.22278278890623932
0.22278678990842396
0.22278278890624492
0.21383315239257528
0.2138389276895268
0.21383315239258047
0.20491757085864507
0.20492520016217375
0.20491757085864998
0.1960473533473863
0.19605686161987596
0.19604735334739115
0.1872338238050813
0.18724521763031501
0.18723382380508585
0.17848828421997578
0.17850156306876264
0.17848828421998025
0.16982203463038156
0.16983719633851274
0.16982203463038595
0.16124637382259752
0.16126341563330637
0.16124637382260157
0.15277259974754098
0.15279151849255865
0.1527725997475447
0.14441200931394393
0.14443280133495684
0.14441200931394724
0.1361758981299153
0.13619855917452242
0.13617589812991832
0.12807556015706165
0.12810008525388916
0.12807556015706442
0.12012228727674343
0.12014867058565296
0.12012228727674577
0.11232736874130811
0.11235560336780258
0.11232736874131019
0.1047020904729981
0.10473216823530529
0.10470209047299983
0.09725773415815436
0.09728964529222539
0.09725773415815586
0.09000557606403857
0.09003930884674191
0.09000557606403978
0.08295688547593441
0.0829924257394403
0.08295688547593533
0.07612292260776114
0.07616025310764421
0.0761229226077617
0.06951493577336983
0.06955403535779632
0.06951493577337017
0.0631441575048058
0.06318500000990786
0.06314415750480581
0.05702179914755945
0.057064351910907564
0.057021799147559116
0.05115904321623609
0.05120326505005743
0.051159043216235434
0.04556703239721138
0.04561287078559441
0.04556703239721043
0.04025685343248933
0.04030424059565853
0.04025685343248808
0.035239513022420246
0.03528836029953202
0.03523951302241871
0.03052590099649293
0.030576090693486255
0.030525900996491145
0.026126732668223653
0.026178106042282014
0.026126732668221624
0.0220524562492105
0.022104795537477774
0.022052456249208218
0.018313099978361804
0.018366101176515742
0.018313099978359296
0.014918012100208315
0.014971241935707088
0.014918012100205585
0.011875405149600476
0.011928228091626532
0.011875405149597581
0.00919152924570712
0.009242950258243331
0.009191529245704112
0.006869139591679083
0.0069174592321146295
0.006869139591676059
0.00490459402324659
0.0049464328131515346
0.004904594023243685
0.003282657875300819
0.0033126709005583733
0.0032826578752982428
0.0019714195986760305
0.001979255010012592
0.0019714195986740646
0.0009071385403997302
0.0009223120334696138
0.0009071385403987248
0.0
0.0
0.0
0.0
0.0
0.0
0.0
0.0
0.0
0.0004661657966513645
6.8084338316744435e-06
0.000466165796651392
0.0011017529047325496
0.0006105713702758861
0.0011017529047374986
0.002142448974696875
0.001669295074144522
0.002142448974712871
0.0036179754543747534
0.003152323106040694
0.0036179754544063795
0.005506329930628304
0.005047255254080587
0.005506329930679825
0.007791792884274847
0.007339360313831605
0.00779179288435203
0.01046160076541501
0.010016356182341115
0.010461600765522362
0.013504293357741223
0.0130666280111931
0.01350429335788288
0.016908626609070908
0.016478830573740423
0.016908626609250826
0.020663372520640128
0.020241656410767497
0.020663372520862085
0.024757279251169134
0.0243438003636558
0.0247572792514366
0.029179076988261835
0.02877395387247654
0.02917907698857815
0.03391748437709509
0.03352080683565833
0.03391748437746034
0.03896121268093091
0.03857304864949987
0.03896121268134157
0.04429896811509658
0.04391936861178471
0.04429896811554523
0.04991945328115062
0.049548456014245935
0.04991945328162697
0.05581136811944832
0.05544900015471195
0.05581136811995186
0.06196341057787527
0.06160969033442004
0.06196341057840561
0.06836427709404794
0.06801921585575785
0.06836427709460435
0.07500266294868176
0.0746662660213716
0.07500266294926382
0.08186726252792333
0.08153953013393361
0.08186726252853024
0.08894676952055688
0.0886276974961063
0.08894676952118823
0.0962298770681148
0.09591945741054325
0.09622987706876973
0.10370527788054712
0.10340349917989257
0.10370527788122501
0.11136166432641831
0.11106851210679118
0.11136166432711844
0.11918772850408332
0.11890318549386755
0.11918772850477515
0.127172162298478
0.12689620864380488
0.12717216229913267
0.13530365742718303
0.13503627085970926
0.13530365742779785
0.1435709054787978
0.14331206144635397
0.14357090547937018
0.15196259794625902
0.1517122697131316
0.1519625979467865
0.16046742625640015
0.16022558497489198
0.16046742625688062
0.16907408177885094
0.1688406965259361
0.16907408177928257
0.17777125574764674
0.1775462934406497
0.1777712557480281
0.1865476386989462
0.18633106381753933
0.18654763869927554
0.1953919187338047
0.1951836920355855
0.19539191873408057
0.20429277369388532
0.20409285640897062
0.20429277369410703
0.2132388617582881
0.21304724187066296
0.21323886175845447
0.2222187705642494
0.22203568128644247
0.22221877056436
0.23122117239272005
0.23104689908635528
0.23122117239277418
0.0004119303796504577
0.00041613204741697816
0.00041193037965140593
0.00014730046659775694
0.0001770063136602723
0.00014730046659795022
0.0004119303796543377
0.0004161320474201424
0.0004119303796534981
0.0011879594769108716
0.0012172641248098669
0.0011879594769128464
0.0007955393679379458
0.0008525021826885743
0.000795539367938338
0.0011879594769225654
0.0012172641248201542
0.0011879594769210768
0.0022971854266697943
0.002346639789314114
0.0022971854266723574
0.001871620584534372
0.0019368373910173238
0.001871620584534967
0.0022971854266931025
0.0023466397893355372
0.0022971854266914706
0.0037957806216112103
0.0038542098130837656
0.0037957806216141416
0.003355752004613654
0.0034233827518668535
0.0033557520046144525
0.003795780621650099
0.003854209813120525
0.003795780621648546
0.0056903678557620185
0.005751277369487504
0.005690367855765223
0.0052464881348395775
0.005313458367348703
0.00524648813484058
0.0056903678558206895
0.0057512773695439145
0.005690367855819299
0.007975867791849183
0.008036926415574287
0.007975867791852626
0.007533081126596553
0.007598381029953459
0.00753308112659776
0.007975867791933395
0.008036926415656183
0.007975867791932208
0.01064326674242737
0.010703530387881207
0.010643266742431013
0.010204337874092128
0.010267744903934495
0.010204337874093534
0.010643266742541605
0.01070353038799311
0.010643266742540652
0.013682354640399703
0.013741413869740206
0.013682354640403524
0.013248880766919864
0.013310357176761612
0.013248880766921475
0.013682354640548088
0.013741413869886266
0.013682354640547366
0.017082399902198505
0.017140031769855395
0.017082399902202516
0.016655375457550567
0.016714924616938374
0.01665537545755239
0.017082399902384988
0.017140031770039546
0.017082399902384516
0.02083242776184676
0.020888494310679795
0.020832427761850937
0.020412503221176593
0.020470129174019278
0.020412503221178605
0.02083242776207508
0.020888494310905854
0.020832427762074848
0.02492133313549299
0.024975742443935595
0.02492133313549731
0.024508951854309832
0.02456465640487381
0.024508951854312046
0.02492133313576667
0.02497574244420701
0.024921333135766673
0.029337937076977978
0.02939062590270201
0.029337937076982443
0.028933410551167327
0.02898719418673189
0.02893341055116974
0.0293379370773003
0.029390625903022077
0.029337937077300553
0.03407101655720784
0.034121940354025396
0.034071016557212494
0.033674568701918296
0.0337264315082023
0.03367456870192088
0.03407101655757892
0.03412194035439428
0.0340710165575794
0.03910932122857285
0.039158447959356635
0.03910932122857764
0.038721115659774444
0.03877105763436848
0.03872111565977719
0.0391093212289892
0.03915844795977076
0.039109321228989906
0.044441583210902434
0.04448888937118752
0.04444158321090737
0.044061740744603305
0.04410976187909883
0.044061740744606274
0.044441583211356515
0.044488889371639535
0.04444158321135749
0.05005652301323859
0.05010199104068764
0.05005652301324368
0.049685133263001426
0.04973123355344756
0.049685133263004645
0.0500565230137203
0.05010199104116724
0.05005652301372153
0.055942853236651734
0.05598646979251275
0.055942853236656986
0.05557998251805074
0.0556241619632688
0.05557998251805418
0.05594285323716045
0.05598646979301948
0.05594285323716197
0.062089280962066506
0.06213103576782883
0.06208928096207194
0.061734977812262344
0.06177723641202077
0.061734977812265994
0.06208928096260185
0.062131035768362194
0.06208928096260366
0.0684845093335613
0.06852439436673209
0.06848450933356687
0.06813880844818265
0.06817914620247222
0.06813880844818646
0.06848450933412253
0.06852439436729141
0.06848450933412462
0.07511723863456968
0.07515524756167416
0.07511723863457542
0.07478016372842436
0.07481858063726071
0.07478016372842844
0.07511723863515635
0.07515524756225894
0.07511723863515866
0.08197616703574609
0.08201229480540054
0.08197616703575189
0.08164773295562965
0.0816842290190211
0.0816477329556339
0.08197616703635743
0.08201229480601017
0.08197616703636003
0.08904999112507545
0.0890842336712505
0.08904999112508136
0.08873020543244882
0.08876478065039826
0.08873020543245318
0.089049991125711
0.08908423367188437
0.0890499911257138
0.09632740629044884
0.09635976031295773
0.09632740629045494
0.09601627046153353
0.09604892483404265
0.09601627046153809
0.09632740629110795
0.09635976031361515
0.09632740629111096
0.10379710700034875
0.1038275698003388
0.10379710700035509
0.1034946173455359
0.10352535087260889
0.10349461734554068
0.10379710700103076
0.10382756980101898
0.10379710700103399
0.11144778701294072
0.11147635636813634
0.11144778701294718
0.11115393538711041
0.11118274806875866
0.11115393538711549
0.11144778701364459
0.11147635636883872
0.11144778701364814
0.11926813953408355
0.11929481360313979
0.11926813953409009
0.11898291388892451
0.11900980572516605
0.11898291388892972
0.11926813953477884
0.11929481360383355
0.11926813953478266
0.12724685733830984
0.12727163458671584
0.12724685733831664
0.12697024215368669
0.12699521314448706
0.12697024215369218
0.127246857338968
0.1272716345873726
0.1272468573389721
0.13537263286271706
0.13539551200471336
0.13537263286272389
0.135104609484188
0.13512765962916173
0.13510460948419353
0.13537263286333523
0.13539551200532993
0.13537263286333948
0.14363415828066467
0.14365513823289805
0.14363415828067175
0.14337470518320056
0.14339583448056945
0.14337470518320639
0.1436341582812403
0.14365513823347237
0.14363415828124484
0.15202012555974453
0.15203920540310048
0.1520201255597517
0.15176921855251074
0.1517884269970109
0.1517692185525168
0.15202012556027508
0.15203920540362972
0.15202012556027994
0.16051922650634137
0.16053640545567507
0.16051922650634873
0.16027683888836786
0.16029412647050953
0.16027683888837407
0.16051922650682485
0.16053640545615727
0.16051922650682998
0.16912015279503045
0.16913543018728588
0.1691201527950378
0.16888625546827926
0.1689016222018178
0.16888625546828565
0.16912015279546497
0.16913543018771962
0.16912015279547046
0.17781159599134758
0.17782497137657396
0.17781159599135504
0.17758615751298287
0.1775996035754463
0.1775861575129893
0.1778115959917318
0.17782497137695713
0.1778115959917372
0.18658224756726235
0.1865937211098319
0.1865822475672698
0.18636523416401818
0.18637676056780106
0.18636523416402487
0.18658224756759442
0.186593721110163
0.1865822475676
0.19542079933775405
0.1954303736473676
0.1954207993377613
0.19521217449838152
0.19522178478756555
0.19521217449838807
0.19542079933803244
0.19543037364764498
0.1954207993380382
0.2043159439528371
0.2043236278699697
0.20431594395284447
0.2041156719837463
0.20412337874707315
0.2041156719837528
0.204315943953061
0.20432362787019287
0.20431594395306668
0.21325638670198072
0.2132622103486987
0.21325638670198838
0.21306444698903867
0.2130702847687501
0.21306444698904545
0.2132563867021493