# vtk DataFile Version 2.0
mesh vtk view
ASCII
DATASET UNSTRUCTURED_GRID
POINTS 1025 double
0.0 0.0 0.0
793.8964632572007 -81.62516989555414 -0.0019345976979714752
806.1035367428124 -1.6251698955541798 0.001934597880643425
0.0 80.0 0.0
0.0 0.0 80.0
793.8964632571877 -81.625169895559 80.00193459787594
806.1035367427995 -1.6251698955590541 79.99806540230679
0.0 80.0 80.0
19.719262181286492 -0.10910642558683507 -0.16079021723505596
39.438872419247396 -0.3011025462147093 -0.1862518661998609
59.15932699749293 -0.6583458830355695 -0.19192402188732177
78.88122133810509 -1.1609443479086268 -0.18795733952891366
98.60889402905991 -1.803285948666869 -0.18258560657778655
118.3436494683513 -2.580262208321302 -0.1771850739289038
138.08598608843536 -3.4879718321579074 -0.17190133690998105
157.83600694039603 -4.522566571608489 -0.16667302356611297
177.5937262524097 -5.680215717318486 -0.16146150783852606
197.35914076551413 -6.957078149667355 -0.15625329410835354
217.13224787754908 -8.349309586539297 -0.15104521992137493
236.91304655807824 -9.853064559429825 -0.1458369244174126
256.7015365416886 -11.464497412991756 -0.1406285087383467
276.49771778756076 -13.179762482843051 -0.13542005381564579
296.30159029931826 -14.995014120835739 -0.1302115902764546
316.113154082259 -16.906406686734172 -0.1250031259686339
335.9324091386568 -18.910094542902172 -0.1197946620398933
355.7593554691541 -21.002232052248402 -0.1145861983629597
375.5939930738653 -23.178973577725905 -0.10937773477554724
395.4363219527904 -25.436473482260602 -0.10416927120965601
415.286342105919 -27.770886128761518 -0.0989608076463
435.1440535332461 -30.178365880131803 -0.09375234408199083
455.0094562347696 -32.655067099273225 -0.08854388051643913
474.882550210487 -35.19714414908716 -0.0833354169502327
494.7633354603915 -37.80075139247269 -0.0781269533893157
514.6518119845459 -40.462043192330384 -0.07291848986313146
534.5479797829528 -43.177173911526864 -0.06771002646875468
554.4518388557466 -45.9422979128935 -0.06250156341186922
574.36338920392 -48.753569559365076 -0.05729310072933669
594.2826308306655 -51.607143214780855 -0.05208463629592538
614.2095637425397 -54.49917324650324 -0.04687615784272785
634.1441879385161 -57.425814033313166 -0.041667621764049916
654.08650334348 -60.38321996628902 -0.036458923400555676
674.0365095337247 -63.367545420965925 -0.031249998053971068
693.9942051388849 -66.37494405695688 -0.026041660190730755
713.9595861022532 -69.4015662143935 -0.02084078463468571
733.9326441388507 -72.44353738890814 -0.015676060027407637
753.9133274839637 -75.49694061466698 -0.010679330760428155
773.9014218792391 -78.55783160666735 -0.0058541585368924775
796.9541067670432 -61.62234272963694 -3.6313146532760876e-05
799.9999999999973 -41.620262770908425 9.137050980832645e-11
803.0458932329597 -21.622342729630233 3.631332923429383e-05
786.0985781208068 1.442168393294125 0.005854158713085492
766.0866725161152 4.503059385256165 0.010679330930077464
746.0673558612615 7.556462610976965 0.01567606019053788
726.0404138978922 10.598433785453992 0.020840784791275515
706.0057948612941 13.625055942853407 0.026041660340721303
685.963490466488 16.632454578807973 0.03124999819745334
665.9134966567668 19.61678003344948 0.03645892353758866
645.8558120617648 22.574185966390814 0.04166762189454188
625.7904362577756 25.500826753167523 0.04687615796682027
605.717369169684 28.392856784857862 0.05208463641357519
585.6366107964643 31.246430440243095 0.057293100840614286
565.5481611446723 34.057702086685715 0.06250156351682393
545.4520202175012 36.82282608802506 0.06771002656744042
525.3481880159433 39.537956807196295 0.07291848995568279
505.23666454013227 42.19924860704816 0.07812695347583563
485.1174497900704 44.802855850448715 0.08333541703084314
464.9905437658215 47.34493290027819 0.08854388059128712
444.8559464673786 49.82163411943566 0.09375234415120293
424.71365789473913 52.22911387082242 0.09896080771001058
404.5636780479013 54.56352651734017 0.10416927126801631
384.4060069268598 56.82102642189219 0.10937773482873504
364.2406445316045 58.99776794738743 0.11458619841115374
344.06759086213515 61.08990545675174 0.11979466208325824
323.8868459185662 63.0935933129382 0.1250031260073781
303.6984097015402 65.00498587885542 0.13021159031076945
283.5022822132546 66.82023751687389 0.1354200538457484
263.2984634590164 68.53550258675602 0.14062850876448998
243.08695344256216 70.1469354403512 0.14583692443984675
222.867752123051 71.65069041327489 0.1510452199403637
202.6408592350453 73.04292185017776 0.1562532941241548
182.40627374810884 74.31978428255516 0.16146150785138957
162.1639930600812 75.47743342829115 0.16667302357631628
141.91401391200057 76.51202816776507 0.17190133691781212
121.65635053204315 77.41973779162217 0.1771850739346528
101.39110597128999 78.19671405129407 0.18258560658176334
81.11877866217057 78.83905565206585 0.18795733953145397
60.840673002705465 79.34165411694966 0.19192402188884972
40.56112758088235 79.69889745377863 0.18625186620086914
20.280737818780896 79.89089357441138 0.1607902172360958
0.0 60.0 0.0
0.0 40.0 0.0
0.0 20.0 0.0
19.719262181285828 -0.10910642558733648 80.1607902172352
39.43887241924607 -0.30110254621541344 80.18625186620032
59.15932699749095 -0.6583458830364256 80.19192402188848
78.88122133810245 -1.1609443479096095 80.18795733953112
98.60889402905663 -1.8032859486679762 80.18258560658138
118.34364946834741 -2.580262208322531 80.1771850739342
138.08598608843087 -3.487971832159265 80.17190133691727
157.83600694039094 -4.5225665716099765 80.1666730235757
177.59372625240405 -5.680215717320094 80.1614615078507
197.35914076550793 -6.957078149669079 80.15625329412339
217.1322478775424 -8.349309586541152 80.15104521993953
236.91304655807104 -9.85306455943179 80.14583692443895
256.7015365416809 -11.464497412993842 80.14062850876351
276.4977177875526 -13.17976248284525 80.13542005384467
296.3015902993097 -14.995014120838068 80.13021159030957
316.11315408224993 -16.906406686736617 80.12500312600604
335.9324091386474 -18.910094542904787 80.11979466208179
355.75935546914434 -21.002232052251124 80.11458619840954
375.5939930738552 -23.17897357772876 80.109377734827
395.4363219527799 -25.436473482263587 80.10416927126616
415.2863421059082 -27.770886128764573 80.09896080770804
435.144053533235 -30.17836588013498 80.09375234414911
455.00945623475826 -32.65506709927652 80.08854388058909
474.8825502104754 -35.19714414909059 80.08333541702852
494.76333546037966 -37.80075139247623 80.07812695347334
514.651811984534 -40.46204319233406 80.07291848995303
534.5479797829406 -43.177173911530694 80.06771002656457
554.4518388557343 -45.94229791289746 80.06250156351373
574.3633892039074 -48.75356955936907 80.05729310083736
594.2826308306529 -51.607143214785005 80.05208463641011
614.2095637425269 -54.49917324650752 80.04687615796315
634.1441879385034 -57.42581403331755 80.04166762189075
654.0865033434671 -60.38321996629344 80.03645892353364
674.036509533712 -63.36754542097044 80.03124999819336
693.9942051388721 -66.37494405696137 80.02604166033656
713.9595861022403 -69.40156621439793 80.02084078478696
733.9326441388378 -72.44353738891277 80.01567606018607
753.9133274839508 -75.49694061467169 80.01067933092541
773.9014218792261 -78.55783160667215 80.00585415870839
796.9541067670302 -61.62234272964177 80.00003631332687
799.9999999999843 -41.620262770913286 80.00000000009135
803.0458932329467 -21.622342729635093 79.99996368685582
786.0985781207938 1.442168393289279 79.99414584146794
766.0866725161023 4.503059385251376 79.98932066924446
746.0673558612485 7.556462610972233 79.98432393997746
726.0404138978794 10.598433785449416 79.9791592153701
706.0057948612813 13.625055942848931 79.9739583398141
685.9634904664752 16.632454578803518 79.96875000195088
665.913496656754 19.61678003344508 79.96354107660424
645.855812061752 22.574185966386636 79.95833237824073
625.7904362577628 25.500826753163373 79.95312384216203
605.7173691696715 28.392856784853826 79.9479153637088
585.6366107964518 31.2464304402392 79.94270689927535
565.54816114466 34.05770208668192 79.93749843659276
545.4520202174889 36.822826088021486 79.93228997353579
525.3481880159312 39.53795680719286 79.9270815101413
505.23666454012044 42.19924860704492 79.92187304661502
485.1174497900588 44.802855850445624 79.91666458305397
464.9905437658101 47.34493290027526 79.91145611948762
444.8559464673676 49.821634119432844 79.9062476559219
424.7136578947283 52.22911387081973 79.90103919235747
404.56367804789085 54.56352651733765 79.89583072879397
384.40600692684967 56.82102642188981 79.89062226522793
364.24064453159474 58.9977679473852 79.88541380164037
344.0675908621257 61.08990545674968 79.88020533796329
323.88684591855724 63.09359331293631 79.8749968740344
303.6984097015316 65.00498587885369 79.86978840972641
283.5022822132465 66.82023751687231 79.86457994618706
263.2984634590087 68.53550258675457 79.85937149126421
243.08695344255497 70.14693544034989 79.85416307558496
222.86775212304428 71.65069041327374 79.84895478008079
202.64085923503913 73.04292185017674 79.84374670589362
182.4062737481032 74.3197842825543 79.83853849216325
162.1639930600761 75.47743342829044 79.83332697643547
141.91401391199608 76.5120281677645 79.8280986630914
121.65635053203926 77.41973779162177 79.82281492607228
101.3911059712867 78.19671405129381 79.81741439342319
81.11877866216793 78.83905565206575 79.81204266047185
60.840673002703475 79.34165411694971 79.80807597811312
40.56112758088102 79.6988974537788 79.81374813380012
20.28073781878023 79.89089357441165 79.83920978276429
0.0 60.0 80.0
0.0 40.0 80.0
0.0 20.0 80.0
0.0 0.0 20.0
0.0 0.0 40.0
0.0 0.0 60.0
793.8941585403476 -81.62705366108241 19.998757296300862
793.8936453099581 -81.62781808263837 40.00000000008895
793.8941585403411 -81.62705366108491 60.001242703877104
806.1058414596591 -1.6270536610824706 20.001242703881847
806.1063546900422 -1.6278180826383561 40.00000000009375
806.1058414596527 -1.627053661084929 59.99875729630562
0.0 80.0 20.0
0.0 80.0 40.0
0.0 80.0 60.0
[...]
POINT_DATA 1025
SCALARS CellEntityIds float 1
LOOKUP_TABLE default
0.0
0.24074425986738604
0.24074425986738907
0.0
0.0
0.24074425986740317
0.24074425986740053
0.0
0.001004192891813903
0.0019514360400759035
0.0031908514725120895
0.004774124164724091
0.006720027353169445
0.009033120859295677
0.011712733297831525
0.014754113334865699
0.018149960145209282
0.021891421461382028
0.02596873743662169
0.030371607228835657
0.03508939873915365
0.04011127023476055
0.04542624329606068
0.051023247976365156
0.056891151593606346
0.06301877756074192
0.06939491798467823
0.07600834227096114
0.08284780311215043
0.08990204072813242
0.0971597859169771
0.10460976228269571
0.11224068788449405
0.12004127647358906
0.1280002384319222
0.13610628149301462
0.14434811130194042
0.152714431856604
0.16119394586368405
0.16977535504461094
0.1784473603832527
0.1871986623018334
0.19601795890464727
0.20489393887711976
0.2138152187538368
0.22277030038753623
0.2317476403859368
0.2402328076846061
0.24005959638484575
0.2402328076846063
0.23174764038605278
0.22277030038776477
0.21381521875417708
0.2048939388775705
0.1960179589052072
0.1871986623025002
0.17844736038402348
0.16977535504548305
0.1611939458646537
0.1527144318576677
0.1443481113030938
0.136106281494253
0.12800023843324063
0.12004127647498156
0.11224068788590369
0.1046097622840614
0.09715978591829728
0.08990204072940562
0.08284780311337543
0.0760083422721368
0.06939491798580319
0.06301877756181495
0.05689115159462647
0.051023247977331224
0.04542624329697172
0.04011127023559618
0.03508939873989906
0.030371607229483844
0.02596873743717294
0.021891421461842926
0.018149960145586903
0.014754113335167525
0.011712733298065398
0.009033120859469897
0.0067200273532929235
0.004774124164808187
0.0031908514725647024
0.0019514360401042515
0.0010041928918256926
0.0
0.0
0.0
0.001004192891816179
0.0019514360400805235
0.0031908514725187513
0.0047741241647322715
0.006720027353178736
0.009033120859305802
0.011712733297842311
0.01475411333487703
0.01814996014522104
0.02189142146139414
0.02596873743663416
0.03037160722884839
0.03508939873916666
0.040111270234773795
0.0454262432960742
0.051023247976378895
0.056891151593620445
0.06301877756075619
0.06939491798469274
0.07600834227097587
0.08284780311216525
0.08990204072814742
0.0971597859169923
0.10460976228271114
0.11224068788450964
0.12004127647360487
0.1280002384319383
0.13610628149303095
0.14434811130195666
0.15271443185662056
0.1611939458637008
0.16977535504462785
0.17844736038326955
0.18719866230185037
0.19601795890466397
0.20489393887713617
0.21381521875385368
0.22277030038755313
0.2317476403859538
0.2402328076846217
0.24005959638486007
0.24023280768461922
0.23174764038606402
0.2227703003877757
0.21381521875418769
0.20489393887758045
0.19601795890521673
0.18719866230250948
0.17844736038403244
0.16977535504549118
0.16119394586466157
0.15271443185767508
0.14434811130310052
0.13610628149425927
0.1280002384332461
0.12004127647498643
0.11224068788590782
0.10460976228406492
0.09715978591830016
0.08990204072940798
0.08284780311337722
0.07600834227213793
0.06939491798580372
0.06301877756181487
0.056891151594625704
0.05102324797732984
0.045426243296969745
0.040111270235593556
0.03508939873989591
0.030371607229480138
0.025968737437168685
0.02189142146183818
0.018149960145581633
0.014754113335161814
0.011712733298059313
0.009033120859463539
0.006720027353286474
0.004774124164801921
0.00319085147255906
0.0019514360400998993
0.0010041928918233093
0.0
0.0
0.0
0.0
0.0
0.0
0.24075029043204435
0.24075264504170085
0.2407502904320531
0.240750290432046
0.24075264504170088
0.2407502904320518
0.0
0.0
0.0
0.0004661657966493285
6.808433831272397e-06
0.00046616579665365965
0.0011017529047283568
0.0006105713702751013
0.0011017529047410936
0.0021424489746915227
0.0016692950741433352
0.002142448974716591
0.0036179754543687226
0.0031523231060390992
0.0036179754544098048
0.0055063299306217705
0.00504725525407859
0.0055063299306828285
0.0077917928842678895
0.007339360313829196
0.007791792884354567
0.010461600765407666
0.010016356182338289
0.010461600765524406
0.013504293357733496
0.013066628011189862
0.01350429335788442
0.016908626609062866
0.016478830573736794
0.01690862660925187
0.020663372520631766
0.02024165641076346
0.020663372520862613
0.02475727925116046
0.02434380036365136
0.02475727925143664
0.029179076988252842
0.028773953872471725
0.029179076988577697
0.033917484377085826
0.03352080683565313
0.03391748437745941
0.03896121268092137
0.03857304864949431
0.03896121268134015
0.044298968115086754
0.04391936861177873
0.04429896811554329
0.0499194532811404
0.04954845601423955
0.049919453281624476
0.05581136811943776
0.0554490001547051
0.05581136811994883
0.061963410577864426
0.06160969033441279
0.06196341057840205
0.06836427709403675
0.06801921585575012
0.06836427709460025
0.0750026629486703
0.07466626602136356
0.07500266294925924
0.08186726252791161
0.08153953013392516
0.08186726252852518
0.08894676952054495
0.0886276974960974
0.08894676952118268
0.09622987706810258
0.09591945741053418
0.09622987706876376
0.10370527788053452
0.10340349917988298
0.10370527788121853
0.11136166432640544
0.11106851210678119
0.11136166432711139
0.11918772850407025
0.11890318549385703
0.11918772850476748
0.1271721622984645
0.12689620864379403
0.12717216229912448
0.1353036574271692
0.13503627085969797
0.13530365742778902
0.14357090547878382
0.14331206144634237
0.14357090547936102
0.15196259794624467
0.15171226971311944
0.1519625979467767
0.16046742625638558
0.16022558497487946
0.1604674262568704
0.16907408177883607
0.16884069652592332
0.16907408177927213
0.17777125574763175
0.1775462934406367
0.17777125574801705
0.18654763869893118
0.18633106381752612
0.18654763869926438
0.1953919187337899
0.19518369203557243
0.19539191873406925
0.20429277369387047
0.20409285640895727
0.20429277369409538
0.21323886175827303
0.2130472418706493
0.21323886175844223
0.22221877056423409
0.22203568128642856
0.22221877056434752
0.23122117239270437
0.23104689908634124
0.2312211723927616
0.000907138540388485
0.0009223120334594775
0.0009071385403896857
0.001971419598647954
0.001979255009986332
0.001971419598650335
0.003282657875249633
0.0033126709005096167
0.0032826578752529673
0.0049045940231650575
0.004946432813073096
0.00490459402316912
0.006869139591558921
0.00691745923199804
0.006869139591563539
0.009191529245536666
0.009242950258076761
0.00919152924554171
0.011875405149370681
0.011928228091400803
0.011875405149376054
0.014918012099910795
0.014971241935413748
0.014918012099916436
0.01831309997798863
0.018366101176146815
0.018313099977994497
0.02205245624875414
0.022104795537025677
0.02205245624876021
0.026126732667677028
0.026178106041739636
0.02612673266768322
0.030525900995849398
0.030576090692847013
0.03052590099585578
0.03523951302167955
0.03528836029879559
0.03523951302168607
0.04025685343165838
0.040304240594831786
0.04025685343166502
0.045567032396304996
0.045612870784692096
0.04556703239631174
0.05115904321527464
0.05120326504910002
0.05115904321528151
0.05702179914654387
0.05706435190989594
0.05702179914655089
0.06314415750373722
0.06318500000884314
0.06314415750374436
0.06951493577224933
0.06955403535667956
0.06951493577225652
0.07612292260658989
0.0761602531064765
0.07612292260659723
0.08295688547471365
0.08299242573822302
0.082956885474721
0.09000557606276949
0.09003930884547624
0.09000557606277697
0.09725773415683822
0.09728964529091268
0.09725773415684587
0.10470209047163637
0.10473216823394695
0.10470209047164408
0.11232736873990234
0.11235560336639998
0.11232736873991021
0.12012228727535451
0.1201486705842672
0.12012228727536242
0.12807556015574686
0.12810008525257735
0.12807556015575497
0.13617589812868022
0.1361985591732903
0.13617589812868836
0.14441200931279383
0.1444328013338093
0.144412009312802
0.15277259974648033
0.1527915184915005
0.15277259974648866
0.16124637382163068
0.16126341563234187
0.16124637382163903
0.16982203462951231
0.16983719633764552
0.16982203462952056
0.17848828421920723
0.17850156306799617
0.17848828421921573
0.18723382380441692
0.1872452176296525
0.18723382380442516
0.19604735334682863
0.19605686161932012
0.19604735334683687
0.204917570858196
0.20492520016172625
0.20491757085820436
0.21383315239223666
0.2138389276891899
0.21383315239224512
0.22278278890601255
0.22278678990819856
0.22278278890602102
0.2317554065218708
0.23175810263210778
0.23175540652187937
0.2402384126962702
0.2402413339426246
0.24023841269627833
0.24006470886177983
0.24006804123148362
0.24006470886178718
0.24023841269626983
0.24024133394262356
0.24023841269627655
0.23175540652198534
0.23175810263222069
0.23175540652199092
0.22278278890623932
0.22278678990842396
0.22278278890624492
0.21383315239257528
0.2138389276895268
0.21383315239258047
0.20491757085864507
0.20492520016217375
0.20491757085864998
0.1960473533473863
0.19605686161987596
0.19604735334739115
0.1872338238050813
0.18724521763031501
0.18723382380508585
0.17848828421997578
0.17850156306876264
0.17848828421998025
0.16982203463038156
0.16983719633851274
0.16982203463038595
0.16124637382259752
0.16126341563330637
0.16124637382260157
0.15277259974754098
0.15279151849255865
0.1527725997475447
0.14441200931394393
0.14443280133495684
0.14441200931394724
0.1361758981299153
0.13619855917452242
0.13617589812991832
0.12807556015706165
0.12810008525388916
0.12807556015706442
0.12012228727674343
0.12014867058565296
0.12012228727674577
0.11232736874130811
0.11235560336780258
0.11232736874131019
0.1047020904729981
0.10473216823530529
0.10470209047299983
0.09725773415815436
0.09728964529222539
0.09725773415815586
0.09000557606403857
0.09003930884674191
0.09000557606403978
0.08295688547593441
0.0829924257394403
0.08295688547593533
0.07612292260776114
0.07616025310764421
0.0761229226077617
0.06951493577336983
0.06955403535779632
0.06951493577337017
0.0631441575048058
0.06318500000990786
0.06314415750480581
0.05702179914755945
0.057064351910907564
0.057021799147559116
0.05115904321623609
0.05120326505005743
0.051159043216235434
0.04556703239721138
0.04561287078559441
0.04556703239721043
0.04025685343248933
0.04030424059565853
0.04025685343248808
0.035239513022420246
0.03528836029953202
0.03523951302241871
0.03052590099649293
0.030576090693486255
0.030525900996491145
0.026126732668223653
0.026178106042282014
0.026126732668221624
0.0220524562492105
0.022104795537477774
0.022052456249208218
0.018313099978361804
0.018366101176515742
0.018313099978359296
0.014918012100208315
0.014971241935707088
0.014918012100205585
0.011875405149600476
0.011928228091626532
0.011875405149597581
0.00919152924570712
0.009242950258243331
0.009191529245704112
0.006869139591679083
0.0069174592321146295
0.006869139591676059
0.00490459402324659
0.0049464328131515346
0.004904594023243685
0.003282657875300819
0.0033126709005583733
0.0032826578752982428
0.0019714195986760305
0.001979255010012592
0.0019714195986740646
0.0009071385403997302
0.0009223120334696138
0.0009071385403987248
0.0
0.0
0.0
0.0
0.0
0.0
0.0
0.0
0.0
0.0004661657966513645
6.8084338316744435e-06
0.000466165796651392
0.0011017529047325496
0.0006105713702758861
0.0011017529047374986
0.002142448974696875
0.001669295074144522
0.002142448974712871
0.0036179754543747534
0.003152323106040694
0.0036179754544063795
0.005506329930628304
0.005047255254080587
0.005506329930679825
0.007791792884274847
0.007339360313831605
0.00779179288435203
0.01046160076541501
0.010016356182341115
0.010461600765522362
0.013504293357741223
0.0130666280111931
0.01350429335788288
0.016908626609070908
0.016478830573740423
0.016908626609250826
0.020663372520640128
0.020241656410767497
0.020663372520862085
0.024757279251169134
0.0243438003636558
0.0247572792514366
0.029179076988261835
0.02877395387247654
0.02917907698857815
0.03391748437709509
0.03352080683565833
0.03391748437746034
0.03896121268093091
0.03857304864949987
0.03896121268134157
0.04429896811509658
0.04391936861178471
0.04429896811554523
0.04991945328115062
0.049548456014245935
0.04991945328162697
0.05581136811944832
0.05544900015471195
0.05581136811995186
0.06196341057787527
0.06160969033442004
0.06196341057840561
0.06836427709404794
0.06801921585575785
0.06836427709460435
0.07500266294868176
0.0746662660213716
0.07500266294926382
0.08186726252792333
0.08153953013393361
0.08186726252853024
0.08894676952055688
0.0886276974961063
0.08894676952118823
0.0962298770681148
0.09591945741054325
0.09622987706876973
0.10370527788054712
0.10340349917989257
0.10370527788122501
0.11136166432641831
0.11106851210679118
0.11136166432711844
0.11918772850408332
0.11890318549386755
0.11918772850477515
0.127172162298478
0.12689620864380488
0.12717216229913267
0.13530365742718303
0.13503627085970926
0.13530365742779785
0.1435709054787978
0.14331206144635397
0.14357090547937018
0.15196259794625902
0.1517122697131316
0.1519625979467865
0.16046742625640015
0.16022558497489198
0.16046742625688062
0.16907408177885094
0.1688406965259361
0.16907408177928257
0.17777125574764674
0.1775462934406497
0.1777712557480281
0.1865476386989462
0.18633106381753933
0.18654763869927554
0.1953919187338047
0.1951836920355855
0.19539191873408057
0.20429277369388532
0.20409285640897062
0.20429277369410703
0.2132388617582881
0.21304724187066296
0.21323886175845447
0.2222187705642494
0.22203568128644247
0.22221877056436
0.23122117239272005
0.23104689908635528
0.23122117239277418
0.0004119303796504577
0.00041613204741697816
0.00041193037965140593
0.00014730046659775694
0.0001770063136602723
0.00014730046659795022
0.0004119303796543377
0.0004161320474201424
0.0004119303796534981
0.0011879594769108716
0.0012172641248098669
0.0011879594769128464
0.0007955393679379458
0.0008525021826885743
0.000795539367938338
0.0011879594769225654
0.0012172641248201542
0.0011879594769210768
0.0022971854266697943
0.002346639789314114
0.0022971854266723574
0.001871620584534372
0.0019368373910173238
0.001871620584534967
0.0022971854266931025
0.0023466397893355372
0.0022971854266914706
0.0037957806216112103
0.0038542098130837656
0.0037957806216141416
0.003355752004613654
0.0034233827518668535
0.0033557520046144525
0.003795780621650099
0.003854209813120525
0.003795780621648546
0.0056903678557620185
0.005751277369487504
0.005690367855765223
0.0052464881348395775
0.005313458367348703
0.00524648813484058
0.0056903678558206895
0.0057512773695439145
0.005690367855819299
0.007975867791849183
0.008036926415574287
0.007975867791852626
0.007533081126596553
0.007598381029953459
0.00753308112659776
0.007975867791933395
0.008036926415656183
0.007975867791932208
0.01064326674242737
0.010703530387881207
0.010643266742431013
0.010204337874092128
0.010267744903934495
0.010204337874093534
0.010643266742541605
0.01070353038799311
0.010643266742540652
0.013682354640399703
0.013741413869740206
0.013682354640403524
0.013248880766919864
0.013310357176761612
0.013248880766921475
0.013682354640548088
0.013741413869886266
0.013682354640547366
0.017082399902198505
0.017140031769855395
0.017082399902202516
0.016655375457550567
0.016714924616938374
0.01665537545755239
0.017082399902384988
0.017140031770039546
0.017082399902384516
0.02083242776184676
0.020888494310679795
0.020832427761850937
0.020412503221176593
0.020470129174019278
0.020412503221178605
0.02083242776207508
0.020888494310905854
0.020832427762074848
0.02492133313549299
0.024975742443935595
0.02492133313549731
0.024508951854309832
0.02456465640487381
0.024508951854312046
0.02492133313576667
0.02497574244420701
0.024921333135766673
0.029337937076977978
0.02939062590270201
0.029337937076982443
0.028933410551167327
0.02898719418673189
0.02893341055116974
0.0293379370773003
0.029390625903022077
0.029337937077300553
0.03407101655720784
0.034121940354025396
0.034071016557212494
0.033674568701918296
0.0337264315082023
0.03367456870192088
0.03407101655757892
0.03412194035439428
0.0340710165575794
0.03910932122857285
0.039158447959356635
0.03910932122857764
0.038721115659774444
0.03877105763436848
0.03872111565977719
0.0391093212289892
0.03915844795977076
0.039109321228989906
0.044441583210902434
0.04448888937118752
0.04444158321090737
0.044061740744603305
0.04410976187909883
0.044061740744606274
0.044441583211356515
0.044488889371639535
0.04444158321135749
0.05005652301323859
0.05010199104068764
0.05005652301324368
0.049685133263001426
0.04973123355344756
0.049685133263004645
0.0500565230137203
0.05010199104116724
0.05005652301372153
0.055942853236651734
0.05598646979251275
0.055942853236656986
0.05557998251805074
0.0556241619632688
0.05557998251805418
0.05594285323716045
0.05598646979301948
0.05594285323716197
0.062089280962066506
0.06213103576782883
0.06208928096207194
0.061734977812262344
0.06177723641202077
0.061734977812265994
0.06208928096260185
0.062131035768362194
0.06208928096260366
0.0684845093335613
0.06852439436673209
0.06848450933356687
0.06813880844818265
0.06817914620247222
0.06813880844818646
0.06848450933412253
0.06852439436729141
0.06848450933412462
0.07511723863456968
0.07515524756167416
0.07511723863457542
0.07478016372842436
0.07481858063726071
0.07478016372842844
0.07511723863515635
0.07515524756225894
0.07511723863515866
0.08197616703574609
0.08201229480540054
0.08197616703575189
0.08164773295562965
0.0816842290190211
0.0816477329556339
0.08197616703635743
0.08201229480601017
0.08197616703636003
0.08904999112507545
0.0890842336712505
0.08904999112508136
0.08873020543244882
0.08876478065039826
0.08873020543245318
0.089049991125711
0.08908423367188437
0.0890499911257138
0.09632740629044884
0.09635976031295773
0.09632740629045494
0.09601627046153353
0.09604892483404265
0.09601627046153809
0.09632740629110795
0.09635976031361515
0.09632740629111096
0.10379710700034875
0.1038275698003388
0.10379710700035509
0.1034946173455359
0.10352535087260889
0.10349461734554068
0.10379710700103076
0.10382756980101898
0.10379710700103399
0.11144778701294072
0.11147635636813634
0.11144778701294718
0.11115393538711041
0.11118274806875866
0.11115393538711549
0.11144778701364459
0.11147635636883872
0.11144778701364814
0.11926813953408355
0.11929481360313979
0.11926813953409009
0.11898291388892451
0.11900980572516605
0.11898291388892972
0.11926813953477884
0.11929481360383355
0.11926813953478266
0.12724685733830984
0.12727163458671584
0.12724685733831664
0.12697024215368669
0.12699521314448706
0.12697024215369218
0.127246857338968
0.1272716345873726
0.1272468573389721
0.13537263286271706
0.13539551200471336
0.13537263286272389
0.135104609484188
0.13512765962916173
0.13510460948419353
0.13537263286333523
0.13539551200532993
0.13537263286333948
0.14363415828066467
0.14365513823289805
0.14363415828067175
0.14337470518320056
0.14339583448056945
0.14337470518320639
0.1436341582812403
0.14365513823347237
0.14363415828124484
0.15202012555974453
0.15203920540310048
0.1520201255597517
0.15176921855251074
0.1517884269970109
0.1517692185525168
0.15202012556027508
0.15203920540362972
0.15202012556027994
0.16051922650634137
0.16053640545567507
0.16051922650634873
0.16027683888836786
0.16029412647050953
0.16027683888837407
0.16051922650682485
0.16053640545615727
0.16051922650682998
0.16912015279503045
0.16913543018728588
0.1691201527950378
0.16888625546827926
0.1689016222018178
0.16888625546828565
0.16912015279546497
0.16913543018771962
0.16912015279547046
0.17781159599134758
0.17782497137657396
0.17781159599135504
0.17758615751298287
0.1775996035754463
0.1775861575129893
0.1778115959917318
0.17782497137695713
0.1778115959917372
0.18658224756726235
0.1865937211098319
0.1865822475672698
0.18636523416401818
0.18637676056780106
0.18636523416402487
0.18658224756759442
0.186593721110163
0.1865822475676
0.19542079933775405
0.1954303736473676
0.1954207993377613
0.19521217449838152
0.19522178478756555
0.19521217449838807
0.19542079933803244
0.19543037364764498
0.1954207993380382
0.2043159439528371
0.2043236278699697
0.20431594395284447
0.2041156719837463
0.20412337874707315
0.2041156719837528
0.204315943953061
0.20432362787019287
0.20431594395306668
0.21325638670198072
0.2132622103486987
0.21325638670198838
0.21306444698903867
0.2130702847687501
0.21306444698904545
0.2132563867021493