# vtk DataFile Version 2.0
mesh vtk view
ASCII
DATASET UNSTRUCTURED_GRID
POINTS 1025 double
0.0 0.0 0.0
795.2129123585888 -64.01974109455222 -0.0015173315278207637
804.7870876414215 15.980258905447755 0.0015173316710928812
0.0 80.0 0.0
0.0 0.0 80.0
795.2129123585786 -64.01974109455603 80.0015173316674
804.7870876414114 15.980258905443932 79.99848266847592
0.0 80.0 80.0
19.77981347550193 -0.08557366712692939 -0.12610997430200457
39.55989993662969 -0.23615885977624237 -0.1460798950587143
59.34064862543308 -0.51634971218476 -0.15052864461750715
79.12252653962398 -0.9105445865950006 -0.14741752119914786
98.90893649329871 -1.4143419205230334 -0.1432043973159109
118.70090154370155 -2.023735065350039 -0.13896868543443425
138.4988126182549 -2.735664182084631 -0.13482457796861247
158.30275054133892 -3.5471110365556746 -0.1307239400518532
178.11272647230766 -4.455071150838024 -0.12663647673609876
197.92873785511227 -5.4565318820920385 -0.12255160322223796
217.75078264884277 -6.54847810708964 -0.11846683915401945
237.57886004531386 -7.727893772101817 -0.11438190150385294
257.4129698363637 -8.99176267685627 -0.11029686959870322
277.25311198998185 -10.337068613994541 -0.1062118069142319
297.09928650900025 -11.760795388890765 -0.102126737471729
316.95149339757415 -13.25992681312483 -0.09804166742637943
336.809732657487 -14.831446700315416 -0.09395659767834759
356.67400428924253 -16.472338864508536 -0.08987152812781145
376.5443082929305 -18.17958711978501 -0.08578645864748796
396.420644668551 -19.950175280204377 -0.08170138918404386
416.3030134160958 -21.781087159812934 -0.07761631972258816
436.19141453556097 -23.669306572652374 -0.0735312502603849
456.08584802694486 -25.61181733276329 -0.0694461807972071
475.9863138902456 -27.605603254185983 -0.06536111133351578
495.89281212545774 -29.647648150958947 -0.06127604187397305
515.805342732647 -31.734935837121842 -0.057190972441671685
535.7239057118131 -33.86445012668771 -0.05310590311274872
555.6485010630475 -36.03317483364193 -0.049020834048524836
575.5791287871286 -38.23809377205101 -0.04493576527791109
595.5157888865606 -40.476190756690826 -0.04085069513405908
615.4584813664854 -42.74444960510055 -0.036765613994296314
635.4072062260984 -45.039854143774996 -0.032680487658078336
655.3619634064858 -47.35938820885409 -0.028595234039651484
675.3227525753289 -49.70003562428696 -0.024509802395271407
695.2895726578311 -52.058779652515156 -0.02042483152214175
715.262420472261 -54.432600952465435 -0.01634571343896917
735.2412895205965 -56.81846069718281 -0.012294949041104019
755.2261392030616 -59.213286756601505 -0.008375945694453449
775.2168014738894 -61.613985573856695 -0.004591496891680371
797.6110641310142 -44.017523709527126 -2.8480899241381057e-05
799.9999999999978 -24.015892369352997 7.166314494770696e-11
802.3889358689879 -4.017523709520418 2.848104253670102e-05
784.7831985261536 18.386014426113093 0.004591497029870969
764.7738607970144 20.78671324333822 0.00837594582751173
744.7587104795127 23.181539302727074 0.012294949169049305
724.7375795278812 25.567399047414938 0.016345713561784703
704.7104273423448 27.94122034733605 0.020424831639781395
684.6772474248804 30.29996437553571 0.02450980250780652
664.6380365937572 32.64061179094081 0.028595234147128334
644.5927937741784 34.960145855992835 0.032680487760424974
624.5415186338254 37.25555039464123 0.03676561409162371
604.4842111137842 39.52380924302581 0.040850695226333444
584.4208712132504 41.761906227641674 0.04493576536518764
564.3514989373657 43.966825166028045 0.04902083413084225
544.2760942886347 46.13554987296086 0.05310590319014931
524.1946572678355 48.265064162506924 0.05719097251426096
504.10718787505897 50.35235184866525 0.06127604194183182
484.01368611030455 52.394396745449995 0.06536111139673965
463.91415197363875 54.38818266688487 0.06944618085591141
443.8085854650561 56.330693427008384 0.0735312503146689
423.6969865845545 58.218912839860735 0.07761631977255724
403.5793553321327 60.0498247194825 0.08170138922981665
383.4556917077864 61.82041287991546 0.08578645868920388
363.3259957115078 63.52766113520584 0.0898715281656107
343.1902673432965 65.16855329941313 0.09395659771235933
323.04850660324246 66.7400731866182 0.09804166745676705
302.9007134918495 68.239204610867 0.10212673749864261
282.7468880108249 69.66293138578345 0.1062118069378418
262.5870301643329 71.0082373229459 0.11029686961920775
242.42113995531852 72.27210622772644 0.11438190152144832
222.2492173517497 73.45152189276463 0.11846683916891261
202.0712621454401 74.54346811778649 0.12255160323463113
181.8872735282044 75.54492884906287 0.12663647674618778
161.69724945913242 76.45288896336561 0.1307239400598558
141.5011873821758 77.26433581785496 0.1348245779747545
121.29909845668834 77.97626493460562 0.13896868543894325
101.09106350704735 78.58565807944632 0.14320439731902995
80.87747346064853 79.08945541338498 0.14741752120114024
60.659351374762906 79.48365028780366 0.15052864461870552
40.44010006349844 79.76384114021853 0.14607989505950508
20.220186524564685 79.91442633287167 0.12610997430282012
0.0 60.0 0.0
0.0 40.0 0.0
0.0 20.0 0.0
19.779813475501406 -0.08557366712732266 80.12610997430211
39.559899936628646 -0.23615885977679466 80.14607989505907
59.34064862543153 -0.5163497121854315 80.15052864461842
79.1225265396219 -0.9105445865957714 80.1474175212009
98.90893649329614 -1.4143419205239016 80.14320439731873
118.70090154369849 -2.023735065351003 80.13896868543858
138.49881261825135 -2.7356641820856957 80.13482457797433
158.30275054133492 -3.5471110365568417 80.13072394005937
178.11272647230322 -4.455071150839285 80.12663647674565
197.9287378551074 -5.45653188209339 80.12255160323403
217.75078264883754 -6.5484781070910945 80.11846683916826
237.5788600453082 -7.727893772103358 80.11438190152074
257.41296983635766 -8.991762676857906 80.11029686961844
277.2531119899755 -10.337068613996266 80.106211806937
297.09928650899354 -11.760795388892591 80.1021267374977
316.9514933975671 -13.259926813126748 80.09804166745572
336.8097326574796 -14.831446700317468 80.0939565977112
356.67400428923486 -16.47233886451067 80.08987152816435
376.54430829292255 -18.17958711978725 80.08578645868785
396.42064466854276 -19.950175280206718 80.08170138922836
416.3030134160873 -21.781087159815332 80.07761631977101
436.19141453555227 -23.669306572654865 80.07353125031302
456.085848026936 -25.611817332765877 80.06944618085419
475.9863138902365 -27.605603254188672 80.06536111139492
495.8928121254485 -29.647648150961725 80.06127604193988
515.8053427326375 -31.734935837124727 80.05719097251217
535.7239057118036 -33.86445012669071 80.0531059031879
555.6485010630379 -36.033174833645035 80.04902083412841
575.5791287871189 -38.23809377205414 80.04493576536262
595.5157888865507 -40.47619075669409 80.04085069522361
615.4584813664756 -42.7444496051039 80.03676561408875
635.4072062260884 -45.03985414377843 80.03268048775746
655.3619634064758 -47.35938820885756 80.02859523414403
675.3227525753188 -49.70003562429049 80.0245098025046
695.2895726578209 -52.05877965251867 80.02042483163652
715.2624204722509 -54.43260095246892 80.0163457135584
735.2412895205863 -56.818460697186445 80.01229494916554
755.2261392030515 -59.21328675660519 80.00837594582384
775.2168014738792 -61.613985573860454 80.00459149702618
797.6110641310041 -44.017523709530906 80.00002848104069
799.9999999999877 -24.01589236935682 80.00000000007165
802.3889358689778 -4.017523709524227 79.9999715191026
784.7831985261435 18.386014426109284 79.99540850311212
764.7738607970043 20.78671324333446 79.99162405430938
744.7587104795026 23.181539302723365 79.98770505096272
724.737579527871 25.567399047411357 79.98365428656479
704.7104273423347 27.941220347332546 79.97957516848165
684.6772474248703 30.29996437553222 79.97549019760854
664.6380365937471 32.64061179093736 79.97140476596411
644.5927937741684 34.96014585598956 79.96731951234567
624.5415186338154 37.25555039463797 79.96323438600943
604.4842111137743 39.52380924302265 79.95914930486964
584.4208712132406 41.761906227638626 79.95506423472575
564.351498937356 43.96682516602507 79.9509791659551
544.276094288625 46.13554987295806 79.94689409689082
524.1946572678261 48.26506416250423 79.94280902756181
504.1071878750497 50.35235184866271 79.93872395812943
484.01368611029545 52.394396745447565 79.93463888866978
463.9141519736298 54.38818266688258 79.93055381920597
443.80858546504743 56.33069342700617 79.92646874974267
423.69698658454604 58.21891283985863 79.92238368028038
403.5793553321245 60.049824719480526 79.91829861081881
383.4556917077785 61.82041287991359 79.91421354135524
363.3259957115001 63.5276611352041 79.9101284718748
343.1902673432891 65.16855329941153 79.90604340232414
323.0485066032354 66.74007318661671 79.901958332576
302.90071349184274 68.23920461086564 79.89787326253052
282.7468880108185 69.66293138578222 79.8937881930879
262.58703016432685 71.00823732294477 79.8897031304033
242.4211399553129 72.27210622772542 79.88561809849801
222.24921735174448 73.45152189276372 79.88153316084768
202.07126214543527 74.5434681177857 79.87744839677931
181.88727352819996 75.5449288490622 79.8733635232653
161.69724945912844 76.45288896336506 79.86927605994939
141.50118738217225 77.26433581785452 79.86517542203246
121.29909845668529 77.97626493460531 79.86103131456649
101.09106350704478 78.58565807944612 79.85679560268485
80.87747346064646 79.0894554133849 79.85258247880145
60.65935137476135 79.48365028780368 79.84947135538285
40.4401000634974 79.76384114021867 79.85392010494127
20.220186524564163 79.91442633287188 79.87389002569748
0.0 60.0 80.0
0.0 40.0 80.0
0.0 20.0 80.0
0.0 0.0 20.0
0.0 0.0 40.0
0.0 0.0 60.0
795.2111047375275 -64.02121855771163 19.999025330432048
795.2107022038887 -64.02181810403005 40.00000000006977
795.2111047375224 -64.02121855771361 60.00097466970753
804.7888952624777 15.978781442288309 20.000974669711255
804.7892977961114 15.978181895969968 40.00000000007353
804.7888952624727 15.978781442286376 59.99902533043578
0.0 80.0 20.0
0.0 80.0 40.0
0.0 80.0 60.0
[...]
POINT_DATA 1025
SCALARS CellEntityIds float 1
LOOKUP_TABLE default
0.0
0.24074425986738604
0.24074425986738907
0.0
0.0
0.24074425986740317
0.24074425986740053
0.0
0.001004192891813903
0.0019514360400759035
0.0031908514725120895
0.004774124164724091
0.006720027353169445
0.009033120859295677
0.011712733297831525
0.014754113334865699
0.018149960145209282
0.021891421461382028
0.02596873743662169
0.030371607228835657
0.03508939873915365
0.04011127023476055
0.04542624329606068
0.051023247976365156
0.056891151593606346
0.06301877756074192
0.06939491798467823
0.07600834227096114
0.08284780311215043
0.08990204072813242
0.0971597859169771
0.10460976228269571
0.11224068788449405
0.12004127647358906
0.1280002384319222
0.13610628149301462
0.14434811130194042
0.152714431856604
0.16119394586368405
0.16977535504461094
0.1784473603832527
0.1871986623018334
0.19601795890464727
0.20489393887711976
0.2138152187538368
0.22277030038753623
0.2317476403859368
0.2402328076846061
0.24005959638484575
0.2402328076846063
0.23174764038605278
0.22277030038776477
0.21381521875417708
0.2048939388775705
0.1960179589052072
0.1871986623025002
0.17844736038402348
0.16977535504548305
0.1611939458646537
0.1527144318576677
0.1443481113030938
0.136106281494253
0.12800023843324063
0.12004127647498156
0.11224068788590369
0.1046097622840614
0.09715978591829728
0.08990204072940562
0.08284780311337543
0.0760083422721368
0.06939491798580319
0.06301877756181495
0.05689115159462647
0.051023247977331224
0.04542624329697172
0.04011127023559618
0.03508939873989906
0.030371607229483844
0.02596873743717294
0.021891421461842926
0.018149960145586903
0.014754113335167525
0.011712733298065398
0.009033120859469897
0.0067200273532929235
0.004774124164808187
0.0031908514725647024
0.0019514360401042515
0.0010041928918256926
0.0
0.0
0.0
0.001004192891816179
0.0019514360400805235
0.0031908514725187513
0.0047741241647322715
0.006720027353178736
0.009033120859305802
0.011712733297842311
0.01475411333487703
0.01814996014522104
0.02189142146139414
0.02596873743663416
0.03037160722884839
0.03508939873916666
0.040111270234773795
0.0454262432960742
0.051023247976378895
0.056891151593620445
0.06301877756075619
0.06939491798469274
0.07600834227097587
0.08284780311216525
0.08990204072814742
0.0971597859169923
0.10460976228271114
0.11224068788450964
0.12004127647360487
0.1280002384319383
0.13610628149303095
0.14434811130195666
0.15271443185662056
0.1611939458637008
0.16977535504462785
0.17844736038326955
0.18719866230185037
0.19601795890466397
0.20489393887713617
0.21381521875385368
0.22277030038755313
0.2317476403859538
0.2402328076846217
0.24005959638486007
0.24023280768461922
0.23174764038606402
0.2227703003877757
0.21381521875418769
0.20489393887758045
0.19601795890521673
0.18719866230250948
0.17844736038403244
0.16977535504549118
0.16119394586466157
0.15271443185767508
0.14434811130310052
0.13610628149425927
0.1280002384332461
0.12004127647498643
0.11224068788590782
0.10460976228406492
0.09715978591830016
0.08990204072940798
0.08284780311337722
0.07600834227213793
0.06939491798580372
0.06301877756181487
0.056891151594625704
0.05102324797732984
0.045426243296969745
0.040111270235593556
0.03508939873989591
0.030371607229480138
0.025968737437168685
0.02189142146183818
0.018149960145581633
0.014754113335161814
0.011712733298059313
0.009033120859463539
0.006720027353286474
0.004774124164801921
0.00319085147255906
0.0019514360400998993
0.0010041928918233093
0.0
0.0
0.0
0.0
0.0
0.0
0.24075029043204435
0.24075264504170085
0.2407502904320531
0.240750290432046
0.24075264504170088
0.2407502904320518
0.0
0.0
0.0
0.0004661657966493285
6.808433831272397e-06
0.00046616579665365965
0.0011017529047283568
0.0006105713702751013
0.0011017529047410936
0.0021424489746915227
0.0016692950741433352
0.002142448974716591
0.0036179754543687226
0.0031523231060390992
0.0036179754544098048
0.0055063299306217705
0.00504725525407859
0.0055063299306828285
0.0077917928842678895
0.007339360313829196
0.007791792884354567
0.010461600765407666
0.010016356182338289
0.010461600765524406
0.013504293357733496
0.013066628011189862
0.01350429335788442
0.016908626609062866
0.016478830573736794
0.01690862660925187
0.020663372520631766
0.02024165641076346
0.020663372520862613
0.02475727925116046
0.02434380036365136
0.02475727925143664
0.029179076988252842
0.028773953872471725
0.029179076988577697
0.033917484377085826
0.03352080683565313
0.03391748437745941
0.03896121268092137
0.03857304864949431
0.03896121268134015
0.044298968115086754
0.04391936861177873
0.04429896811554329
0.0499194532811404
0.04954845601423955
0.049919453281624476
0.05581136811943776
0.0554490001547051
0.05581136811994883
0.061963410577864426
0.06160969033441279
0.06196341057840205
0.06836427709403675
0.06801921585575012
0.06836427709460025
0.0750026629486703
0.07466626602136356
0.07500266294925924
0.08186726252791161
0.08153953013392516
0.08186726252852518
0.08894676952054495
0.0886276974960974
0.08894676952118268
0.09622987706810258
0.09591945741053418
0.09622987706876376
0.10370527788053452
0.10340349917988298
0.10370527788121853
0.11136166432640544
0.11106851210678119
0.11136166432711139
0.11918772850407025
0.11890318549385703
0.11918772850476748
0.1271721622984645
0.12689620864379403
0.12717216229912448
0.1353036574271692
0.13503627085969797
0.13530365742778902
0.14357090547878382
0.14331206144634237
0.14357090547936102
0.15196259794624467
0.15171226971311944
0.1519625979467767
0.16046742625638558
0.16022558497487946
0.1604674262568704
0.16907408177883607
0.16884069652592332
0.16907408177927213
0.17777125574763175
0.1775462934406367
0.17777125574801705
0.18654763869893118
0.18633106381752612
0.18654763869926438
0.1953919187337899
0.19518369203557243
0.19539191873406925
0.20429277369387047
0.20409285640895727
0.20429277369409538
0.21323886175827303
0.2130472418706493
0.21323886175844223
0.22221877056423409
0.22203568128642856
0.22221877056434752
0.23122117239270437
0.23104689908634124
0.2312211723927616
0.000907138540388485
0.0009223120334594775
0.0009071385403896857
0.001971419598647954
0.001979255009986332
0.001971419598650335
0.003282657875249633
0.0033126709005096167
0.0032826578752529673
0.0049045940231650575
0.004946432813073096
0.00490459402316912
0.006869139591558921
0.00691745923199804
0.006869139591563539
0.009191529245536666
0.009242950258076761
0.00919152924554171
0.011875405149370681
0.011928228091400803
0.011875405149376054
0.014918012099910795
0.014971241935413748
0.014918012099916436
0.01831309997798863
0.018366101176146815
0.018313099977994497
0.02205245624875414
0.022104795537025677
0.02205245624876021
0.026126732667677028
0.026178106041739636
0.02612673266768322
0.030525900995849398
0.030576090692847013
0.03052590099585578
0.03523951302167955
0.03528836029879559
0.03523951302168607
0.04025685343165838
0.040304240594831786
0.04025685343166502
0.045567032396304996
0.045612870784692096
0.04556703239631174
0.05115904321527464
0.05120326504910002
0.05115904321528151
0.05702179914654387
0.05706435190989594
0.05702179914655089
0.06314415750373722
0.06318500000884314
0.06314415750374436
0.06951493577224933
0.06955403535667956
0.06951493577225652
0.07612292260658989
0.0761602531064765
0.07612292260659723
0.08295688547471365
0.08299242573822302
0.082956885474721
0.09000557606276949
0.09003930884547624
0.09000557606277697
0.09725773415683822
0.09728964529091268
0.09725773415684587
0.10470209047163637
0.10473216823394695
0.10470209047164408
0.11232736873990234
0.11235560336639998
0.11232736873991021
0.12012228727535451
0.1201486705842672
0.12012228727536242
0.12807556015574686
0.12810008525257735
0.12807556015575497
0.13617589812868022
0.1361985591732903
0.13617589812868836
0.14441200931279383
0.1444328013338093
0.144412009312802
0.15277259974648033
0.1527915184915005
0.15277259974648866
0.16124637382163068
0.16126341563234187
0.16124637382163903
0.16982203462951231
0.16983719633764552
0.16982203462952056
0.17848828421920723
0.17850156306799617
0.17848828421921573
0.18723382380441692
0.1872452176296525
0.18723382380442516
0.19604735334682863
0.19605686161932012
0.19604735334683687
0.204917570858196
0.20492520016172625
0.20491757085820436
0.21383315239223666
0.2138389276891899
0.21383315239224512
0.22278278890601255
0.22278678990819856
0.22278278890602102
0.2317554065218708
0.23175810263210778
0.23175540652187937
0.2402384126962702
0.2402413339426246
0.24023841269627833
0.24006470886177983
0.24006804123148362
0.24006470886178718
0.24023841269626983
0.24024133394262356
0.24023841269627655
0.23175540652198534
0.23175810263222069
0.23175540652199092
0.22278278890623932
0.22278678990842396
0.22278278890624492
0.21383315239257528
0.2138389276895268
0.21383315239258047
0.20491757085864507
0.20492520016217375
0.20491757085864998
0.1960473533473863
0.19605686161987596
0.19604735334739115
0.1872338238050813
0.18724521763031501
0.18723382380508585
0.17848828421997578
0.17850156306876264
0.17848828421998025
0.16982203463038156
0.16983719633851274
0.16982203463038595
0.16124637382259752
0.16126341563330637
0.16124637382260157
0.15277259974754098
0.15279151849255865
0.1527725997475447
0.14441200931394393
0.14443280133495684
0.14441200931394724
0.1361758981299153
0.13619855917452242
0.13617589812991832
0.12807556015706165
0.12810008525388916
0.12807556015706442
0.12012228727674343
0.12014867058565296
0.12012228727674577
0.11232736874130811
0.11235560336780258
0.11232736874131019
0.1047020904729981
0.10473216823530529
0.10470209047299983
0.09725773415815436
0.09728964529222539
0.09725773415815586
0.09000557606403857
0.09003930884674191
0.09000557606403978
0.08295688547593441
0.0829924257394403
0.08295688547593533
0.07612292260776114
0.07616025310764421
0.0761229226077617
0.06951493577336983
0.06955403535779632
0.06951493577337017
0.0631441575048058
0.06318500000990786
0.06314415750480581
0.05702179914755945
0.057064351910907564
0.057021799147559116
0.05115904321623609
0.05120326505005743
0.051159043216235434
0.04556703239721138
0.04561287078559441
0.04556703239721043
0.04025685343248933
0.04030424059565853
0.04025685343248808
0.035239513022420246
0.03528836029953202
0.03523951302241871
0.03052590099649293
0.030576090693486255
0.030525900996491145
0.026126732668223653
0.026178106042282014
0.026126732668221624
0.0220524562492105
0.022104795537477774
0.022052456249208218
0.018313099978361804
0.018366101176515742
0.018313099978359296
0.014918012100208315
0.014971241935707088
0.014918012100205585
0.011875405149600476
0.011928228091626532
0.011875405149597581
0.00919152924570712
0.009242950258243331
0.009191529245704112
0.006869139591679083
0.0069174592321146295
0.006869139591676059
0.00490459402324659
0.0049464328131515346
0.004904594023243685
0.003282657875300819
0.0033126709005583733
0.0032826578752982428
0.0019714195986760305
0.001979255010012592
0.0019714195986740646
0.0009071385403997302
0.0009223120334696138
0.0009071385403987248
0.0
0.0
0.0
0.0
0.0
0.0
0.0
0.0
0.0
0.0004661657966513645
6.8084338316744435e-06
0.000466165796651392
0.0011017529047325496
0.0006105713702758861
0.0011017529047374986
0.002142448974696875
0.001669295074144522
0.002142448974712871
0.0036179754543747534
0.003152323106040694
0.0036179754544063795
0.005506329930628304
0.005047255254080587
0.005506329930679825
0.007791792884274847
0.007339360313831605
0.00779179288435203
0.01046160076541501
0.010016356182341115
0.010461600765522362
0.013504293357741223
0.0130666280111931
0.01350429335788288
0.016908626609070908
0.016478830573740423
0.016908626609250826
0.020663372520640128
0.020241656410767497
0.020663372520862085
0.024757279251169134
0.0243438003636558
0.0247572792514366
0.029179076988261835
0.02877395387247654
0.02917907698857815
0.03391748437709509
0.03352080683565833
0.03391748437746034
0.03896121268093091
0.03857304864949987
0.03896121268134157
0.04429896811509658
0.04391936861178471
0.04429896811554523
0.04991945328115062
0.049548456014245935
0.04991945328162697
0.05581136811944832
0.05544900015471195
0.05581136811995186
0.06196341057787527
0.06160969033442004
0.06196341057840561
0.06836427709404794
0.06801921585575785
0.06836427709460435
0.07500266294868176
0.0746662660213716
0.07500266294926382
0.08186726252792333
0.08153953013393361
0.08186726252853024
0.08894676952055688
0.0886276974961063
0.08894676952118823
0.0962298770681148
0.09591945741054325
0.09622987706876973
0.10370527788054712
0.10340349917989257
0.10370527788122501
0.11136166432641831
0.11106851210679118
0.11136166432711844
0.11918772850408332
0.11890318549386755
0.11918772850477515
0.127172162298478
0.12689620864380488
0.12717216229913267
0.13530365742718303
0.13503627085970926
0.13530365742779785
0.1435709054787978
0.14331206144635397
0.14357090547937018
0.15196259794625902
0.1517122697131316
0.1519625979467865
0.16046742625640015
0.16022558497489198
0.16046742625688062
0.16907408177885094
0.1688406965259361
0.16907408177928257
0.17777125574764674
0.1775462934406497
0.1777712557480281
0.1865476386989462
0.18633106381753933
0.18654763869927554
0.1953919187338047
0.1951836920355855
0.19539191873408057
0.20429277369388532
0.20409285640897062
0.20429277369410703
0.2132388617582881
0.21304724187066296
0.21323886175845447
0.2222187705642494
0.22203568128644247
0.22221877056436
0.23122117239272005
0.23104689908635528
0.23122117239277418
0.0004119303796504577
0.00041613204741697816
0.00041193037965140593
0.00014730046659775694
0.0001770063136602723
0.00014730046659795022
0.0004119303796543377
0.0004161320474201424
0.0004119303796534981
0.0011879594769108716
0.0012172641248098669
0.0011879594769128464
0.0007955393679379458
0.0008525021826885743
0.000795539367938338
0.0011879594769225654
0.0012172641248201542
0.0011879594769210768
0.0022971854266697943
0.002346639789314114
0.0022971854266723574
0.001871620584534372
0.0019368373910173238
0.001871620584534967
0.0022971854266931025
0.0023466397893355372
0.0022971854266914706
0.0037957806216112103
0.0038542098130837656
0.0037957806216141416
0.003355752004613654
0.0034233827518668535
0.0033557520046144525
0.003795780621650099
0.003854209813120525
0.003795780621648546
0.0056903678557620185
0.005751277369487504
0.005690367855765223
0.0052464881348395775
0.005313458367348703
0.00524648813484058
0.0056903678558206895
0.0057512773695439145
0.005690367855819299
0.007975867791849183
0.008036926415574287
0.007975867791852626
0.007533081126596553
0.007598381029953459
0.00753308112659776
0.007975867791933395
0.008036926415656183
0.007975867791932208
0.01064326674242737
0.010703530387881207
0.010643266742431013
0.010204337874092128
0.010267744903934495
0.010204337874093534
0.010643266742541605
0.01070353038799311
0.010643266742540652
0.013682354640399703
0.013741413869740206
0.013682354640403524
0.013248880766919864
0.013310357176761612
0.013248880766921475
0.013682354640548088
0.013741413869886266
0.013682354640547366
0.017082399902198505
0.017140031769855395
0.017082399902202516
0.016655375457550567
0.016714924616938374
0.01665537545755239
0.017082399902384988
0.017140031770039546
0.017082399902384516
0.02083242776184676
0.020888494310679795
0.020832427761850937
0.020412503221176593
0.020470129174019278
0.020412503221178605
0.02083242776207508
0.020888494310905854
0.020832427762074848
0.02492133313549299
0.024975742443935595
0.02492133313549731
0.024508951854309832
0.02456465640487381
0.024508951854312046
0.02492133313576667
0.02497574244420701
0.024921333135766673
0.029337937076977978
0.02939062590270201
0.029337937076982443
0.028933410551167327
0.02898719418673189
0.02893341055116974
0.0293379370773003
0.029390625903022077
0.029337937077300553
0.03407101655720784
0.034121940354025396
0.034071016557212494
0.033674568701918296
0.0337264315082023
0.03367456870192088
0.03407101655757892
0.03412194035439428
0.0340710165575794
0.03910932122857285
0.039158447959356635
0.03910932122857764
0.038721115659774444
0.03877105763436848
0.03872111565977719
0.0391093212289892
0.03915844795977076
0.039109321228989906
0.044441583210902434
0.04448888937118752
0.04444158321090737
0.044061740744603305
0.04410976187909883
0.044061740744606274
0.044441583211356515
0.044488889371639535
0.04444158321135749
0.05005652301323859
0.05010199104068764
0.05005652301324368
0.049685133263001426
0.04973123355344756
0.049685133263004645
0.0500565230137203
0.05010199104116724
0.05005652301372153
0.055942853236651734
0.05598646979251275
0.055942853236656986
0.05557998251805074
0.0556241619632688
0.05557998251805418
0.05594285323716045
0.05598646979301948
0.05594285323716197
0.062089280962066506
0.06213103576782883
0.06208928096207194
0.061734977812262344
0.06177723641202077
0.061734977812265994
0.06208928096260185
0.062131035768362194
0.06208928096260366
0.0684845093335613
0.06852439436673209
0.06848450933356687
0.06813880844818265
0.06817914620247222
0.06813880844818646
0.06848450933412253
0.06852439436729141
0.06848450933412462
0.07511723863456968
0.07515524756167416
0.07511723863457542
0.07478016372842436
0.07481858063726071
0.07478016372842844
0.07511723863515635
0.07515524756225894
0.07511723863515866
0.08197616703574609
0.08201229480540054
0.08197616703575189
0.08164773295562965
0.0816842290190211
0.0816477329556339
0.08197616703635743
0.08201229480601017
0.08197616703636003
0.08904999112507545
0.0890842336712505
0.08904999112508136
0.08873020543244882
0.08876478065039826
0.08873020543245318
0.089049991125711
0.08908423367188437
0.0890499911257138
0.09632740629044884
0.09635976031295773
0.09632740629045494
0.09601627046153353
0.09604892483404265
0.09601627046153809
0.09632740629110795
0.09635976031361515
0.09632740629111096
0.10379710700034875
0.1038275698003388
0.10379710700035509
0.1034946173455359
0.10352535087260889
0.10349461734554068
0.10379710700103076
0.10382756980101898
0.10379710700103399
0.11144778701294072
0.11147635636813634
0.11144778701294718
0.11115393538711041
0.11118274806875866
0.11115393538711549
0.11144778701364459
0.11147635636883872
0.11144778701364814
0.11926813953408355
0.11929481360313979
0.11926813953409009
0.11898291388892451
0.11900980572516605
0.11898291388892972
0.11926813953477884
0.11929481360383355
0.11926813953478266
0.12724685733830984
0.12727163458671584
0.12724685733831664
0.12697024215368669
0.12699521314448706
0.12697024215369218
0.127246857338968
0.1272716345873726
0.1272468573389721
0.13537263286271706
0.13539551200471336
0.13537263286272389
0.135104609484188
0.13512765962916173
0.13510460948419353
0.13537263286333523
0.13539551200532993
0.13537263286333948
0.14363415828066467
0.14365513823289805
0.14363415828067175
0.14337470518320056
0.14339583448056945
0.14337470518320639
0.1436341582812403
0.14365513823347237
0.14363415828124484
0.15202012555974453
0.15203920540310048
0.1520201255597517
0.15176921855251074
0.1517884269970109
0.1517692185525168
0.15202012556027508
0.15203920540362972
0.15202012556027994
0.16051922650634137
0.16053640545567507
0.16051922650634873
0.16027683888836786
0.16029412647050953
0.16027683888837407
0.16051922650682485
0.16053640545615727
0.16051922650682998
0.16912015279503045
0.16913543018728588
0.1691201527950378
0.16888625546827926
0.1689016222018178
0.16888625546828565
0.16912015279546497
0.16913543018771962
0.16912015279547046
0.17781159599134758
0.17782497137657396
0.17781159599135504
0.17758615751298287
0.1775996035754463
0.1775861575129893
0.1778115959917318
0.17782497137695713
0.1778115959917372
0.18658224756726235
0.1865937211098319
0.1865822475672698
0.18636523416401818
0.18637676056780106
0.18636523416402487
0.18658224756759442
0.186593721110163
0.1865822475676
0.19542079933775405
0.1954303736473676
0.1954207993377613
0.19521217449838152
0.19522178478756555
0.19521217449838807
0.19542079933803244
0.19543037364764498
0.1954207993380382
0.2043159439528371
0.2043236278699697
0.20431594395284447
0.2041156719837463
0.20412337874707315
0.2041156719837528
0.204315943953061
0.20432362787019287
0.20431594395306668
0.21325638670198072
0.2132622103486987
0.21325638670198838
0.21306444698903867
0.2130702847687501
0.21306444698904545
0.2132563867021493