# vtk DataFile Version 2.0
mesh vtk view
ASCII
DATASET UNSTRUCTURED_GRID
POINTS 1025 double
0.0 0.0 0.0
794.2554948303066 -76.8236893134627 -0.0018207978333849174
805.7445051697058 3.1763106865372635 0.0018207980053114583
0.0 80.0 0.0
0.0 0.0 80.0
794.2554948302943 -76.82368931346727 80.00182079800089
805.7445051696936 3.1763106865326733 79.9981792021711
0.0 80.0 80.0
19.735776170617974 -0.10268840055231533 -0.15133196916240557
39.47187992398802 -0.283390631731491 -0.17529587407045727
59.20877835056752 -0.6196196546217123 -0.18063437354100867
78.94703184761025 -1.0926535039140013 -0.1769010254389775
98.69072379203413 -1.697210304627641 -0.17184527677909317
118.44108185253774 -2.428482078420048 -0.16676242252132117
138.19857514202252 -3.282797018501559 -0.16178949356233505
157.9633006497441 -4.256533243866812 -0.1568687280622239
177.73527176692733 -5.346085381005632 -0.1519637720833186
197.5144854263136 -6.54783825851045 -0.14706192386668562
217.300939178811 -7.8581737285075715 -0.14216020698482343
237.09463205459704 -9.273472526522186 -0.1372582818046236
256.89556380387273 -10.790115212227532 -0.1323562435184439
276.70373438822105 -12.404482336793457 -0.12745416829707834
296.5191438110497 -14.112954466668926 -0.12255208496607486
316.3417920773449 -15.911912175749803 -0.11765000091165538
336.17167918924684 -17.797736040378506 -0.11274791721401717
356.00880514736 -19.766806637410255 -0.1078458337533738
375.8531699517922 -21.815504543742023 -0.10294375037698561
395.7047736025433 -23.940210336245265 -0.09804166702085268
415.56361609960356 -26.137304591775536 -0.09313958366710584
435.42969744296835 -28.403167887182864 -0.08823750031246193
455.3030176326356 -30.73418079931597 -0.08333541695664858
475.183576668603 -33.1267239050232 -0.07843333360021898
495.0713745508641 -35.57717778115075 -0.0735312502487677
514.9664112794826 -38.08192300454623 -0.06862916693000606
534.8686868544602 -40.637340152025274 -0.0637270837352985
554.7782012759196 -43.239809800370345 -0.05882500085822983
574.6949545447951 -45.88571252646123 -0.05392291833349334
594.6189466640915 -48.57142890802902 -0.04902083416087093
614.5501776399794 -51.29333952612068 -0.0441187367931556
634.4886474714931 -54.04782497253002 -0.03921658518969403
654.4343560879361 -56.831265850624945 -0.0343142808475818
674.3873030905258 -59.64004274914438 -0.029411762874325703
694.3474871895066 -62.47053558301822 -0.024509797826570114
714.3149045668008 -65.31912114295856 -0.019614856126763017
734.2895474247814 -68.18215283661941 -0.01475393884932483
754.2713670437178 -71.05594410792185 -0.010051134833344143
774.2601617686892 -73.93678268862807 -0.0055097962700164475
797.133276957217 -56.821028451425164 -3.417707908965728e-05
799.9999999999975 -36.81907084321148 8.599577393724839e-11
802.8667230427856 -16.821028451418456 3.417725104404124e-05
785.7398382313559 6.063217311335663 0.005509796435845166
765.7286329563605 8.944055892005835 0.01005113499301408
745.71045257533 11.81784716327246 0.014753939002859175
725.6850954333438 14.680878856897891 0.019614856274141654
705.6525128106716 17.52946441680323 0.02450979796773769
685.612696909686 20.35995725064282 0.02941176300936784
665.5656439123096 23.168734149128944 0.03431428097655402
645.5113525287867 25.952175027191373 0.039216585312509995
625.4498223603346 28.70666047356945 0.044118736909948476
605.3810533362569 31.42857109163095 0.049020834271600165
585.3050454555878 34.11428747316999 0.05392291843822519
565.2217987244978 36.76019019923363 0.05882500095701074
545.1313131459921 39.36265984755301 0.06372708382817921
525.0335887210048 41.91807699500829 0.06862916701711319
504.9286254496577 44.42282221839828 0.07353125033019822
484.8164233319524 46.87327609453998 0.07843333367608764
464.69698236795347 49.26581920026184 0.08333541702709373
444.5703025576543 51.59683211241004 0.08823750037760272
424.4363839010524 53.862695407832874 0.09313958372706875
404.2952263981462 56.05978966337899 0.09804166707578003
384.14683004893067 58.18449545589854 0.10294375042704472
363.99119485339634 60.23319336224699 0.1078458337987329
343.82832081154277 62.202263959295756 0.11274791725483124
323.65820792347796 64.08808782394183 0.11765000094812052
303.48085618980633 65.8870455330404 0.1225520849983712
283.296265612592 67.59551766294013 0.1274541683254102
263.10443619682997 69.20988478753509 0.13235624354304937
242.90536794604117 70.72652747327172 0.13725828182573807
222.69906082178701 72.14182627131754 0.14216020700269522
202.4855145742439 73.45216174134377 0.14706192388155742
182.26472823358944 74.65391461887545 0.15196377209542541
162.03669935073154 75.74346675603873 0.15686872807182703
141.801424858412 76.71720298142594 0.16178949356970548
121.55891814785548 77.57151792152675 0.16676242252673198
101.30927620831471 78.30278969533559 0.17184527678283604
81.05296815266456 78.90734649606198 0.17690102544136838
60.791221649630224 79.38038034536439 0.18063437354244674
40.528120076141285 79.71660936826224 0.17529587407140618
20.2642238294492 79.89731159944601 0.15133196916338423
0.0 60.0 0.0
0.0 40.0 0.0
0.0 20.0 0.0
19.73577617061735 -0.10268840055278725 80.15133196916254
39.47187992398677 -0.28339063173215373 80.17529587407088
59.20877835056565 -0.619619654622518 80.1806343735421
78.94703184760776 -1.0926535039149263 80.17690102544107
98.69072379203104 -1.697210304628683 80.17184527678248
118.44108185253407 -2.428482078421205 80.1667624225263
138.19857514201829 -3.2827970185028366 80.1617894935692
157.96330064973932 -4.256533243868212 80.15686872807125
177.735271766922 -5.346085381007145 80.15196377209477
197.5144854263078 -6.547838258512072 80.14706192388084
217.3009391788047 -7.858173728509317 80.14216020700191
237.09463205459028 -9.273472526524035 80.1372582818249
256.89556380386546 -10.790115212229495 80.13235624354213
276.7037343882134 -12.404482336795526 80.1274541683244
296.5191438110416 -14.112954466671118 80.12255208499724
316.34179207733644 -15.911912175752105 80.11765000094685
336.17167918923803 -17.797736040380972 80.11274791725344
356.00880514735087 -19.766806637412817 80.10784583379721
375.85316995178266 -21.81550454374471 80.10294375042542
395.70477360253346 -23.94021033624807 80.09804166707403
415.56361609959345 -26.137304591778413 80.09313958372522
435.42969744295794 -28.40316788718585 80.08823750037563
455.3030176326249 -30.734180799319066 80.08333541702503
475.1835766685921 -33.126723905026424 80.0784333336739
495.07137455085297 -35.57717778115409 80.07353125032786
514.9664112794713 -38.081923004549694 80.0686291670146
534.8686868544487 -40.63734015202888 80.06372708382547
554.778201275908 -43.23980980037406 80.0588250009541
574.6949545447833 -45.88571252646499 80.05392291843516
594.6189466640795 -48.57142890803293 80.04902083426833
614.5501776399675 -51.293339526124704 80.0441187369065
634.488647471481 -54.047824972534144 80.03921658530895
654.434356087924 -56.8312658506291 80.03431428097284
674.3873030905138 -59.64004274914863 80.02941176300551
694.3474871894945 -62.47053558302244 80.02450979796382
714.3149045667886 -65.31912114296273 80.01961485627008
734.2895474247692 -68.18215283662377 80.01475393899864
754.2713670437055 -71.05594410792627 80.01005113498861
774.260161768677 -73.93678268863259 80.00550979643143
797.1332769572049 -56.82102845142971 80.00003417724882
799.9999999999852 -36.81907084321605 80.00000000008598
802.8667230427734 -16.821028451423032 79.99996582292313
785.7398382313438 6.063217311331101 79.99449020373453
765.7286329563483 8.944055892001316 79.98994886517126
745.7104525753178 11.817847163268013 79.98524606115527
725.6850954333316 14.6808788568936 79.98038514387775
705.6525128106595 17.529464416799016 79.97549020217798
685.6126969096738 20.35995725063863 79.97058823713024
665.5656439122976 23.168734149124802 79.96568571915694
645.5113525287746 25.952175027187437 79.9607834148148
625.4498223603226 28.70666047356554 79.95588126321132
605.381053336245 31.42857109162715 79.95097916584358
585.3050454555761 34.11428747316633 79.94607708167091
565.2217987244861 36.76019019923006 79.94117499914613
545.1313131459806 39.362659847549644 79.93627291626898
525.0335887209934 41.91807699500506 79.93137083307418
504.92862544964663 44.42282221839523 79.92646874975532
484.8164233319415 46.87327609453707 79.92156666640373
464.6969823679428 49.265819200259074 79.91666458304717
444.57030255764386 51.596832112407384 79.9117624996912
424.4363839010423 53.86269540783034 79.90686041633644
404.2952263981364 56.05978966337662 79.90195833298256
384.1468300489212 58.1844954558963 79.89705624962629
363.9911948533871 60.233193362244904 79.89215416624975
343.82832081153396 62.20226395929383 79.88725208278898
323.6582079234695 64.08808782394006 79.88234999909119
303.48085618979826 65.88704553303876 79.87744791503663
283.2962656125843 67.59551766293865 79.87254583170548
263.10443619682275 69.20988478753372 79.86764375648396
242.9053679460344 70.7265274732705 79.86274171819761
222.6990608217807 72.14182627131646 79.85783979301722
202.48551457423807 73.45216174134282 79.85293807613517
182.26472823358412 74.65391461887464 79.84803622791836
162.03669935072676 75.74346675603806 79.84313127193927
141.80142485840776 76.71720298142542 79.83821050643897
121.5589181478518 77.57151792152636 79.83323757747979
101.30927620831163 78.30278969533535 79.82815472322183
81.05296815266207 78.90734649606189 79.82309897456174
60.791221649628355 79.38038034536443 79.81936562645942
40.528120076140034 79.7166093682624 79.82470412592951
20.264223829448575 79.89731159944625 79.84866803083698
0.0 60.0 80.0
0.0 40.0 80.0
0.0 20.0 80.0
0.0 0.0 20.0
0.0 0.0 40.0
0.0 0.0 60.0
794.253325685033 -76.825462269254 19.998830396518457
794.2528426446664 -76.82618172483609 40.00000000008372
794.2533256850269 -76.82546226925636 60.00116960364904
805.7466743149732 3.1745377307459393 20.001169603653505
805.7471573553338 3.1738182751639243 40.000000000088235
805.7466743149672 3.174537730743623 59.99883039652293
0.0 80.0 20.0
0.0 80.0 40.0
0.0 80.0 60.0
[...]
POINT_DATA 1025
SCALARS CellEntityIds float 1
LOOKUP_TABLE default
0.0
0.24074425986738604
0.24074425986738907
0.0
0.0
0.24074425986740317
0.24074425986740053
0.0
0.001004192891813903
0.0019514360400759035
0.0031908514725120895
0.004774124164724091
0.006720027353169445
0.009033120859295677
0.011712733297831525
0.014754113334865699
0.018149960145209282
0.021891421461382028
0.02596873743662169
0.030371607228835657
0.03508939873915365
0.04011127023476055
0.04542624329606068
0.051023247976365156
0.056891151593606346
0.06301877756074192
0.06939491798467823
0.07600834227096114
0.08284780311215043
0.08990204072813242
0.0971597859169771
0.10460976228269571
0.11224068788449405
0.12004127647358906
0.1280002384319222
0.13610628149301462
0.14434811130194042
0.152714431856604
0.16119394586368405
0.16977535504461094
0.1784473603832527
0.1871986623018334
0.19601795890464727
0.20489393887711976
0.2138152187538368
0.22277030038753623
0.2317476403859368
0.2402328076846061
0.24005959638484575
0.2402328076846063
0.23174764038605278
0.22277030038776477
0.21381521875417708
0.2048939388775705
0.1960179589052072
0.1871986623025002
0.17844736038402348
0.16977535504548305
0.1611939458646537
0.1527144318576677
0.1443481113030938
0.136106281494253
0.12800023843324063
0.12004127647498156
0.11224068788590369
0.1046097622840614
0.09715978591829728
0.08990204072940562
0.08284780311337543
0.0760083422721368
0.06939491798580319
0.06301877756181495
0.05689115159462647
0.051023247977331224
0.04542624329697172
0.04011127023559618
0.03508939873989906
0.030371607229483844
0.02596873743717294
0.021891421461842926
0.018149960145586903
0.014754113335167525
0.011712733298065398
0.009033120859469897
0.0067200273532929235
0.004774124164808187
0.0031908514725647024
0.0019514360401042515
0.0010041928918256926
0.0
0.0
0.0
0.001004192891816179
0.0019514360400805235
0.0031908514725187513
0.0047741241647322715
0.006720027353178736
0.009033120859305802
0.011712733297842311
0.01475411333487703
0.01814996014522104
0.02189142146139414
0.02596873743663416
0.03037160722884839
0.03508939873916666
0.040111270234773795
0.0454262432960742
0.051023247976378895
0.056891151593620445
0.06301877756075619
0.06939491798469274
0.07600834227097587
0.08284780311216525
0.08990204072814742
0.0971597859169923
0.10460976228271114
0.11224068788450964
0.12004127647360487
0.1280002384319383
0.13610628149303095
0.14434811130195666
0.15271443185662056
0.1611939458637008
0.16977535504462785
0.17844736038326955
0.18719866230185037
0.19601795890466397
0.20489393887713617
0.21381521875385368
0.22277030038755313
0.2317476403859538
0.2402328076846217
0.24005959638486007
0.24023280768461922
0.23174764038606402
0.2227703003877757
0.21381521875418769
0.20489393887758045
0.19601795890521673
0.18719866230250948
0.17844736038403244
0.16977535504549118
0.16119394586466157
0.15271443185767508
0.14434811130310052
0.13610628149425927
0.1280002384332461
0.12004127647498643
0.11224068788590782
0.10460976228406492
0.09715978591830016
0.08990204072940798
0.08284780311337722
0.07600834227213793
0.06939491798580372
0.06301877756181487
0.056891151594625704
0.05102324797732984
0.045426243296969745
0.040111270235593556
0.03508939873989591
0.030371607229480138
0.025968737437168685
0.02189142146183818
0.018149960145581633
0.014754113335161814
0.011712733298059313
0.009033120859463539
0.006720027353286474
0.004774124164801921
0.00319085147255906
0.0019514360400998993
0.0010041928918233093
0.0
0.0
0.0
0.0
0.0
0.0
0.24075029043204435
0.24075264504170085
0.2407502904320531
0.240750290432046
0.24075264504170088
0.2407502904320518
0.0
0.0
0.0
0.0004661657966493285
6.808433831272397e-06
0.00046616579665365965
0.0011017529047283568
0.0006105713702751013
0.0011017529047410936
0.0021424489746915227
0.0016692950741433352
0.002142448974716591
0.0036179754543687226
0.0031523231060390992
0.0036179754544098048
0.0055063299306217705
0.00504725525407859
0.0055063299306828285
0.0077917928842678895
0.007339360313829196
0.007791792884354567
0.010461600765407666
0.010016356182338289
0.010461600765524406
0.013504293357733496
0.013066628011189862
0.01350429335788442
0.016908626609062866
0.016478830573736794
0.01690862660925187
0.020663372520631766
0.02024165641076346
0.020663372520862613
0.02475727925116046
0.02434380036365136
0.02475727925143664
0.029179076988252842
0.028773953872471725
0.029179076988577697
0.033917484377085826
0.03352080683565313
0.03391748437745941
0.03896121268092137
0.03857304864949431
0.03896121268134015
0.044298968115086754
0.04391936861177873
0.04429896811554329
0.0499194532811404
0.04954845601423955
0.049919453281624476
0.05581136811943776
0.0554490001547051
0.05581136811994883
0.061963410577864426
0.06160969033441279
0.06196341057840205
0.06836427709403675
0.06801921585575012
0.06836427709460025
0.0750026629486703
0.07466626602136356
0.07500266294925924
0.08186726252791161
0.08153953013392516
0.08186726252852518
0.08894676952054495
0.0886276974960974
0.08894676952118268
0.09622987706810258
0.09591945741053418
0.09622987706876376
0.10370527788053452
0.10340349917988298
0.10370527788121853
0.11136166432640544
0.11106851210678119
0.11136166432711139
0.11918772850407025
0.11890318549385703
0.11918772850476748
0.1271721622984645
0.12689620864379403
0.12717216229912448
0.1353036574271692
0.13503627085969797
0.13530365742778902
0.14357090547878382
0.14331206144634237
0.14357090547936102
0.15196259794624467
0.15171226971311944
0.1519625979467767
0.16046742625638558
0.16022558497487946
0.1604674262568704
0.16907408177883607
0.16884069652592332
0.16907408177927213
0.17777125574763175
0.1775462934406367
0.17777125574801705
0.18654763869893118
0.18633106381752612
0.18654763869926438
0.1953919187337899
0.19518369203557243
0.19539191873406925
0.20429277369387047
0.20409285640895727
0.20429277369409538
0.21323886175827303
0.2130472418706493
0.21323886175844223
0.22221877056423409
0.22203568128642856
0.22221877056434752
0.23122117239270437
0.23104689908634124
0.2312211723927616
0.000907138540388485
0.0009223120334594775
0.0009071385403896857
0.001971419598647954
0.001979255009986332
0.001971419598650335
0.003282657875249633
0.0033126709005096167
0.0032826578752529673
0.0049045940231650575
0.004946432813073096
0.00490459402316912
0.006869139591558921
0.00691745923199804
0.006869139591563539
0.009191529245536666
0.009242950258076761
0.00919152924554171
0.011875405149370681
0.011928228091400803
0.011875405149376054
0.014918012099910795
0.014971241935413748
0.014918012099916436
0.01831309997798863
0.018366101176146815
0.018313099977994497
0.02205245624875414
0.022104795537025677
0.02205245624876021
0.026126732667677028
0.026178106041739636
0.02612673266768322
0.030525900995849398
0.030576090692847013
0.03052590099585578
0.03523951302167955
0.03528836029879559
0.03523951302168607
0.04025685343165838
0.040304240594831786
0.04025685343166502
0.045567032396304996
0.045612870784692096
0.04556703239631174
0.05115904321527464
0.05120326504910002
0.05115904321528151
0.05702179914654387
0.05706435190989594
0.05702179914655089
0.06314415750373722
0.06318500000884314
0.06314415750374436
0.06951493577224933
0.06955403535667956
0.06951493577225652
0.07612292260658989
0.0761602531064765
0.07612292260659723
0.08295688547471365
0.08299242573822302
0.082956885474721
0.09000557606276949
0.09003930884547624
0.09000557606277697
0.09725773415683822
0.09728964529091268
0.09725773415684587
0.10470209047163637
0.10473216823394695
0.10470209047164408
0.11232736873990234
0.11235560336639998
0.11232736873991021
0.12012228727535451
0.1201486705842672
0.12012228727536242
0.12807556015574686
0.12810008525257735
0.12807556015575497
0.13617589812868022
0.1361985591732903
0.13617589812868836
0.14441200931279383
0.1444328013338093
0.144412009312802
0.15277259974648033
0.1527915184915005
0.15277259974648866
0.16124637382163068
0.16126341563234187
0.16124637382163903
0.16982203462951231
0.16983719633764552
0.16982203462952056
0.17848828421920723
0.17850156306799617
0.17848828421921573
0.18723382380441692
0.1872452176296525
0.18723382380442516
0.19604735334682863
0.19605686161932012
0.19604735334683687
0.204917570858196
0.20492520016172625
0.20491757085820436
0.21383315239223666
0.2138389276891899
0.21383315239224512
0.22278278890601255
0.22278678990819856
0.22278278890602102
0.2317554065218708
0.23175810263210778
0.23175540652187937
0.2402384126962702
0.2402413339426246
0.24023841269627833
0.24006470886177983
0.24006804123148362
0.24006470886178718
0.24023841269626983
0.24024133394262356
0.24023841269627655
0.23175540652198534
0.23175810263222069
0.23175540652199092
0.22278278890623932
0.22278678990842396
0.22278278890624492
0.21383315239257528
0.2138389276895268
0.21383315239258047
0.20491757085864507
0.20492520016217375
0.20491757085864998
0.1960473533473863
0.19605686161987596
0.19604735334739115
0.1872338238050813
0.18724521763031501
0.18723382380508585
0.17848828421997578
0.17850156306876264
0.17848828421998025
0.16982203463038156
0.16983719633851274
0.16982203463038595
0.16124637382259752
0.16126341563330637
0.16124637382260157
0.15277259974754098
0.15279151849255865
0.1527725997475447
0.14441200931394393
0.14443280133495684
0.14441200931394724
0.1361758981299153
0.13619855917452242
0.13617589812991832
0.12807556015706165
0.12810008525388916
0.12807556015706442
0.12012228727674343
0.12014867058565296
0.12012228727674577
0.11232736874130811
0.11235560336780258
0.11232736874131019
0.1047020904729981
0.10473216823530529
0.10470209047299983
0.09725773415815436
0.09728964529222539
0.09725773415815586
0.09000557606403857
0.09003930884674191
0.09000557606403978
0.08295688547593441
0.0829924257394403
0.08295688547593533
0.07612292260776114
0.07616025310764421
0.0761229226077617
0.06951493577336983
0.06955403535779632
0.06951493577337017
0.0631441575048058
0.06318500000990786
0.06314415750480581
0.05702179914755945
0.057064351910907564
0.057021799147559116
0.05115904321623609
0.05120326505005743
0.051159043216235434
0.04556703239721138
0.04561287078559441
0.04556703239721043
0.04025685343248933
0.04030424059565853
0.04025685343248808
0.035239513022420246
0.03528836029953202
0.03523951302241871
0.03052590099649293
0.030576090693486255
0.030525900996491145
0.026126732668223653
0.026178106042282014
0.026126732668221624
0.0220524562492105
0.022104795537477774
0.022052456249208218
0.018313099978361804
0.018366101176515742
0.018313099978359296
0.014918012100208315
0.014971241935707088
0.014918012100205585
0.011875405149600476
0.011928228091626532
0.011875405149597581
0.00919152924570712
0.009242950258243331
0.009191529245704112
0.006869139591679083
0.0069174592321146295
0.006869139591676059
0.00490459402324659
0.0049464328131515346
0.004904594023243685
0.003282657875300819
0.0033126709005583733
0.0032826578752982428
0.0019714195986760305
0.001979255010012592
0.0019714195986740646
0.0009071385403997302
0.0009223120334696138
0.0009071385403987248
0.0
0.0
0.0
0.0
0.0
0.0
0.0
0.0
0.0
0.0004661657966513645
6.8084338316744435e-06
0.000466165796651392
0.0011017529047325496
0.0006105713702758861
0.0011017529047374986
0.002142448974696875
0.001669295074144522
0.002142448974712871
0.0036179754543747534
0.003152323106040694
0.0036179754544063795
0.005506329930628304
0.005047255254080587
0.005506329930679825
0.007791792884274847
0.007339360313831605
0.00779179288435203
0.01046160076541501
0.010016356182341115
0.010461600765522362
0.013504293357741223
0.0130666280111931
0.01350429335788288
0.016908626609070908
0.016478830573740423
0.016908626609250826
0.020663372520640128
0.020241656410767497
0.020663372520862085
0.024757279251169134
0.0243438003636558
0.0247572792514366
0.029179076988261835
0.02877395387247654
0.02917907698857815
0.03391748437709509
0.03352080683565833
0.03391748437746034
0.03896121268093091
0.03857304864949987
0.03896121268134157
0.04429896811509658
0.04391936861178471
0.04429896811554523
0.04991945328115062
0.049548456014245935
0.04991945328162697
0.05581136811944832
0.05544900015471195
0.05581136811995186
0.06196341057787527
0.06160969033442004
0.06196341057840561
0.06836427709404794
0.06801921585575785
0.06836427709460435
0.07500266294868176
0.0746662660213716
0.07500266294926382
0.08186726252792333
0.08153953013393361
0.08186726252853024
0.08894676952055688
0.0886276974961063
0.08894676952118823
0.0962298770681148
0.09591945741054325
0.09622987706876973
0.10370527788054712
0.10340349917989257
0.10370527788122501
0.11136166432641831
0.11106851210679118
0.11136166432711844
0.11918772850408332
0.11890318549386755
0.11918772850477515
0.127172162298478
0.12689620864380488
0.12717216229913267
0.13530365742718303
0.13503627085970926
0.13530365742779785
0.1435709054787978
0.14331206144635397
0.14357090547937018
0.15196259794625902
0.1517122697131316
0.1519625979467865
0.16046742625640015
0.16022558497489198
0.16046742625688062
0.16907408177885094
0.1688406965259361
0.16907408177928257
0.17777125574764674
0.1775462934406497
0.1777712557480281
0.1865476386989462
0.18633106381753933
0.18654763869927554
0.1953919187338047
0.1951836920355855
0.19539191873408057
0.20429277369388532
0.20409285640897062
0.20429277369410703
0.2132388617582881
0.21304724187066296
0.21323886175845447
0.2222187705642494
0.22203568128644247
0.22221877056436
0.23122117239272005
0.23104689908635528
0.23122117239277418
0.0004119303796504577
0.00041613204741697816
0.00041193037965140593
0.00014730046659775694
0.0001770063136602723
0.00014730046659795022
0.0004119303796543377
0.0004161320474201424
0.0004119303796534981
0.0011879594769108716
0.0012172641248098669
0.0011879594769128464
0.0007955393679379458
0.0008525021826885743
0.000795539367938338
0.0011879594769225654
0.0012172641248201542
0.0011879594769210768
0.0022971854266697943
0.002346639789314114
0.0022971854266723574
0.001871620584534372
0.0019368373910173238
0.001871620584534967
0.0022971854266931025
0.0023466397893355372
0.0022971854266914706
0.0037957806216112103
0.0038542098130837656
0.0037957806216141416
0.003355752004613654
0.0034233827518668535
0.0033557520046144525
0.003795780621650099
0.003854209813120525
0.003795780621648546
0.0056903678557620185
0.005751277369487504
0.005690367855765223
0.0052464881348395775
0.005313458367348703
0.00524648813484058
0.0056903678558206895
0.0057512773695439145
0.005690367855819299
0.007975867791849183
0.008036926415574287
0.007975867791852626
0.007533081126596553
0.007598381029953459
0.00753308112659776
0.007975867791933395
0.008036926415656183
0.007975867791932208
0.01064326674242737
0.010703530387881207
0.010643266742431013
0.010204337874092128
0.010267744903934495
0.010204337874093534
0.010643266742541605
0.01070353038799311
0.010643266742540652
0.013682354640399703
0.013741413869740206
0.013682354640403524
0.013248880766919864
0.013310357176761612
0.013248880766921475
0.013682354640548088
0.013741413869886266
0.013682354640547366
0.017082399902198505
0.017140031769855395
0.017082399902202516
0.016655375457550567
0.016714924616938374
0.01665537545755239
0.017082399902384988
0.017140031770039546
0.017082399902384516
0.02083242776184676
0.020888494310679795
0.020832427761850937
0.020412503221176593
0.020470129174019278
0.020412503221178605
0.02083242776207508
0.020888494310905854
0.020832427762074848
0.02492133313549299
0.024975742443935595
0.02492133313549731
0.024508951854309832
0.02456465640487381
0.024508951854312046
0.02492133313576667
0.02497574244420701
0.024921333135766673
0.029337937076977978
0.02939062590270201
0.029337937076982443
0.028933410551167327
0.02898719418673189
0.02893341055116974
0.0293379370773003
0.029390625903022077
0.029337937077300553
0.03407101655720784
0.034121940354025396
0.034071016557212494
0.033674568701918296
0.0337264315082023
0.03367456870192088
0.03407101655757892
0.03412194035439428
0.0340710165575794
0.03910932122857285
0.039158447959356635
0.03910932122857764
0.038721115659774444
0.03877105763436848
0.03872111565977719
0.0391093212289892
0.03915844795977076
0.039109321228989906
0.044441583210902434
0.04448888937118752
0.04444158321090737
0.044061740744603305
0.04410976187909883
0.044061740744606274
0.044441583211356515
0.044488889371639535
0.04444158321135749
0.05005652301323859
0.05010199104068764
0.05005652301324368
0.049685133263001426
0.04973123355344756
0.049685133263004645
0.0500565230137203
0.05010199104116724
0.05005652301372153
0.055942853236651734
0.05598646979251275
0.055942853236656986
0.05557998251805074
0.0556241619632688
0.05557998251805418
0.05594285323716045
0.05598646979301948
0.05594285323716197
0.062089280962066506
0.06213103576782883
0.06208928096207194
0.061734977812262344
0.06177723641202077
0.061734977812265994
0.06208928096260185
0.062131035768362194
0.06208928096260366
0.0684845093335613
0.06852439436673209
0.06848450933356687
0.06813880844818265
0.06817914620247222
0.06813880844818646
0.06848450933412253
0.06852439436729141
0.06848450933412462
0.07511723863456968
0.07515524756167416
0.07511723863457542
0.07478016372842436
0.07481858063726071
0.07478016372842844
0.07511723863515635
0.07515524756225894
0.07511723863515866
0.08197616703574609
0.08201229480540054
0.08197616703575189
0.08164773295562965
0.0816842290190211
0.0816477329556339
0.08197616703635743
0.08201229480601017
0.08197616703636003
0.08904999112507545
0.0890842336712505
0.08904999112508136
0.08873020543244882
0.08876478065039826
0.08873020543245318
0.089049991125711
0.08908423367188437
0.0890499911257138
0.09632740629044884
0.09635976031295773
0.09632740629045494
0.09601627046153353
0.09604892483404265
0.09601627046153809
0.09632740629110795
0.09635976031361515
0.09632740629111096
0.10379710700034875
0.1038275698003388
0.10379710700035509
0.1034946173455359
0.10352535087260889
0.10349461734554068
0.10379710700103076
0.10382756980101898
0.10379710700103399
0.11144778701294072
0.11147635636813634
0.11144778701294718
0.11115393538711041
0.11118274806875866
0.11115393538711549
0.11144778701364459
0.11147635636883872
0.11144778701364814
0.11926813953408355
0.11929481360313979
0.11926813953409009
0.11898291388892451
0.11900980572516605
0.11898291388892972
0.11926813953477884
0.11929481360383355
0.11926813953478266
0.12724685733830984
0.12727163458671584
0.12724685733831664
0.12697024215368669
0.12699521314448706
0.12697024215369218
0.127246857338968
0.1272716345873726
0.1272468573389721
0.13537263286271706
0.13539551200471336
0.13537263286272389
0.135104609484188
0.13512765962916173
0.13510460948419353
0.13537263286333523
0.13539551200532993
0.13537263286333948
0.14363415828066467
0.14365513823289805
0.14363415828067175
0.14337470518320056
0.14339583448056945
0.14337470518320639
0.1436341582812403
0.14365513823347237
0.14363415828124484
0.15202012555974453
0.15203920540310048
0.1520201255597517
0.15176921855251074
0.1517884269970109
0.1517692185525168
0.15202012556027508
0.15203920540362972
0.15202012556027994
0.16051922650634137
0.16053640545567507
0.16051922650634873
0.16027683888836786
0.16029412647050953
0.16027683888837407
0.16051922650682485
0.16053640545615727
0.16051922650682998
0.16912015279503045
0.16913543018728588
0.1691201527950378
0.16888625546827926
0.1689016222018178
0.16888625546828565
0.16912015279546497
0.16913543018771962
0.16912015279547046
0.17781159599134758
0.17782497137657396
0.17781159599135504
0.17758615751298287
0.1775996035754463
0.1775861575129893
0.1778115959917318
0.17782497137695713
0.1778115959917372
0.18658224756726235
0.1865937211098319
0.1865822475672698
0.18636523416401818
0.18637676056780106
0.18636523416402487
0.18658224756759442
0.186593721110163
0.1865822475676
0.19542079933775405
0.1954303736473676
0.1954207993377613
0.19521217449838152
0.19522178478756555
0.19521217449838807
0.19542079933803244
0.19543037364764498
0.1954207993380382
0.2043159439528371
0.2043236278699697
0.20431594395284447
0.2041156719837463
0.20412337874707315
0.2041156719837528
0.204315943953061
0.20432362787019287
0.20431594395306668
0.21325638670198072
0.2132622103486987
0.21325638670198838
0.21306444698903867
0.2130702847687501
0.21306444698904545
0.2132563867021493