# vtk DataFile Version 2.0
mesh vtk view
ASCII
DATASET UNSTRUCTURED_GRID
POINTS 861 double
0.0 0.0 0.0
2.0 0.0 0.0
2.0 1.0 0.0
0.0 1.0 0.0
0.049999999978443684 -1.8892612744700512e-11 0.0
0.09999999996400667 -3.5628583496580316e-11 0.0
0.1499999999534133 -5.3121944923492415e-11 0.0
0.19999999994548917 -7.082903061062844e-11 0.0
0.24999999993975935 -8.862366492603625e-11 0.0
0.2999999999358926 -1.0627551017229744e-10 0.0
0.34999999993374326 -1.2356929760784904e-10 0.0
0.39999999993315105 -1.4029830634077663e-10 0.0
0.44999999993396633 -1.5627157764696248e-10 0.0
0.49999999993604555 -1.713164207796608e-10 0.0
0.5499999999392482 -1.85280739459847e-10 0.0
0.5999999999434362 -1.9803450968830097e-10 0.0
0.6499999999484732 -2.0947037380690882e-10 0.0
0.6999999999542281 -2.1950320466454512e-10 0.0
0.7499999999605754 -2.280686212424654e-10 0.0
0.7999999999673972 -2.351205628912666e-10 0.0
0.8499999999745844 -2.4062816533717983e-10 0.0
0.8999999999820362 -2.4457229865092593e-10 0.0
0.9499999999896594 -2.4694220349781e-10 0.0
0.9999999999973885 -2.477326770715656e-10 0.0
1.0500000000053513 -2.4694220349779795e-10 0.0
1.1000000000132524 -2.4457229865088933e-10 0.0
1.1500000000209816 -2.40628165337111e-10 0.0
1.2000000000284465 -2.3512056289116263e-10 0.0
1.2500000000355451 -2.280686212423271e-10 0.0
1.30000000004217 -2.1950320466437633e-10 0.0
1.3500000000482029 -2.094703738067137e-10 0.0
1.4000000000535167 -1.9803450968808445e-10 0.0
1.4500000000579822 -1.8528073945961502e-10 0.0
1.5000000000614617 -1.7131642077941947e-10 0.0
1.5500000000638186 -1.5627157764671645e-10 0.0
1.6000000000649115 -1.4029830634053073e-10 0.0
1.6500000000645962 -1.23569297607608e-10 0.0
1.7000000000627244 -1.0627551017206564e-10 0.0
1.7500000000591303 -8.862366492582023e-11 0.0
1.8000000000536143 -7.082903061045407e-11 0.0
1.8500000000458974 -5.312194492336693e-11 0.0
1.9000000000355297 -3.5628583496499744e-11 0.0
1.950000000021331 -1.8892612744659874e-11 0.0
2.0 0.04999999999989965 0.0
2.0 0.09999999999981467 0.0
2.0 0.1499999999997036 0.0
2.0 0.1999999999995579 0.0
2.0 0.2499999999994121 0.0
2.0 0.2999999999992664 0.0
2.0 0.3499999999991206 0.0
2.0 0.3999999999989749 0.0
2.0 0.4499999999988292 0.0
2.0 0.4999999999986943 0.0
2.0 0.5499999999988151 0.0
2.0 0.5999999999989468 0.0
2.0 0.6499999999990784 0.0
2.0 0.69999999999921 0.0
2.0 0.7499999999993417 0.0
2.0 0.7999999999994734 0.0
2.0 0.8499999999996051 0.0
2.0 0.8999999999997368 0.0
2.0 0.9499999999998684 0.0
1.9499999999772664 0.9999999999799106 0.0
1.899999999962228 0.9999999999622605 0.0
1.8499999999513326 0.9999999999440689 0.0
1.7999999999433116 0.9999999999259195 0.0
1.7499999999377311 0.9999999999079515 0.0
1.6999999999347393 0.9999999998904232 0.0
1.6499999999337231 0.9999999998735929 0.0
1.599999999934493 0.9999999998577285 0.0
1.5499999999369165 0.9999999998431042 0.0
1.49999999994087 0.9999999998300012 0.0
1.4499999999462239 0.9999999998187117 0.0
1.399999999952844 0.9999999998095456 0.0
1.3499999999605874 0.9999999998028454 0.0
1.2999999999693066 0.999999999799016 0.0
1.2499999999788405 0.9999999997985765 0.0
1.1999999999890283 0.9999999998023259 0.0
1.1499999999996293 0.9999999998114472 0.0
1.1000000000104346 0.9999999998298043 0.0
1.0500000000177128 0.9999999998592052 0.0
1.000000000004117 0.9999999999752681 0.0
0.9499999999900541 0.9999999998592052 0.0
0.8999999999967772 0.9999999998298043 0.0
0.8500000000070284 0.9999999998114472 0.0
0.8000000000170744 0.9999999998023259 0.0
0.7500000000267071 0.9999999997985765 0.0
0.7000000000356861 0.999999999799016 0.0
0.6500000000438498 0.9999999998028454 0.0
0.6000000000510396 0.9999999998095456 0.0
0.5500000000571047 0.9999999998187117 0.0
0.5000000000619037 0.9999999998300012 0.0
0.45000000006530205 0.9999999998431042 0.0
0.4000000000671716 0.9999999998577285 0.0
0.35000000006738613 0.9999999998735929 0.0
0.300000000065815 0.9999999998904232 0.0
0.25000000006231093 0.9999999999079515 0.0
0.2000000000566873 0.9999999999259195 0.0
0.1500000000486668 0.9999999999440689 0.0
0.10000000003777215 0.9999999999622605 0.0
0.05000000002273362 0.9999999999799106 0.0
0.0 0.9499999999997918 0.0
0.0 0.8999999999995836 0.0
0.0 0.8499999999996529 0.0
0.0 0.7999999999999998 0.0
0.0 0.7500000000003466 0.0
0.0 0.7000000000006934 0.0
0.0 0.6500000000010401 0.0
0.0 0.6000000000013869 0.0
0.0 0.5500000000017335 0.0
0.0 0.5000000000020587 0.0
0.0 0.4500000000018723 0.0
0.0 0.4000000000016644 0.0
0.0 0.3500000000014564 0.0
0.0 0.3000000000012483 0.0
0.0 0.2500000000010403 0.0
0.0 0.2000000000008322 0.0
0.0 0.1500000000006241 0.0
0.0 0.100000000000416 0.0
0.0 0.05000000000020799 0.0
0.04999999998897218 0.0499999999859108 0.0
0.0499999999926195 0.09999999998709892 0.0
0.04999999999489616 0.1499999999873203 0.0
0.04999999999643216 0.19999999998724238 0.0
0.04999999999756185 0.24999999998707376 0.0
0.049999999998430876 0.29999999998690136 0.0
0.04999999999912536 0.3499999999867641 0.0
0.04999999999970074 0.39999999998668184 0.0
0.050000000000197185 0.4499999999866658 0.0
0.050000000000647256 0.4999999999867018 0.0
0.0500000000010805 0.5499999999863239 0.0
0.050000000001527475 0.5999999999860072 0.0
0.05000000000202352 0.6499999999857736 0.0
0.050000000002614 0.6999999999856212 0.0
0.05000000000336225 0.7499999999855373 0.0
0.050000000004366094 0.7999999999854875 0.0
0.05000000000578873 0.8499999999853869 0.0
0.050000000007996474 0.8999999999852909 0.0
0.050000000011674595 0.9499999999844941 0.0
0.0999999999775628 0.04999999996798134 0.0
0.09999999998531436 0.099999999970357 0.0
0.09999999998992079 0.14999999997125008 0.0
0.09999999999306049 0.19999999997144588 0.0
0.09999999999533367 0.24999999997133038 0.0
0.09999999999706144 0.29999999997109805 0.0
0.09999999999842522 0.34999999997085074 0.0
0.09999999999954237 0.399999999970644 0.0
0.10000000000049629 0.44999999997050977 0.0
0.10000000000135383 0.4999999999704471 0.0
0.10000000000217499 0.5499999999700131 0.0
0.10000000000302196 0.5999999999696646 0.0
0.10000000000396739 0.6499999999694172 0.0
0.10000000000510514 0.6999999999692517 0.0
0.10000000000656911 0.7499999999691224 0.0
0.10000000000856553 0.7999999999689344 0.0
0.10000000001145352 0.8499999999684904 0.0
0.10000000001589403 0.8999999999676509 0.0
0.10000000002370449 0.9499999999655776 0.0
0.1499999999682906 0.04999999994986464 0.0
0.14999999997838323 0.0999999999521341 0.0
0.14999999998514346 0.1499999999534758 0.0
0.14999999998982871 0.1999999999540517 0.0
0.14999999999324107 0.24999999995418135 0.0
0.1499999999958227 0.2999999999540803 0.0
0.14999999999784572 0.34999999995388464 0.0
0.1499999999994888 0.39999999995367724 0.0
0.1500000000008803 0.44999999995350864 0.0
0.15000000000212235 0.4999999999533889 0.0
0.15000000000330674 0.5499999999528985 0.0
0.15000000000452826 0.5999999999524741 0.0
0.15000000000589764 0.6499999999521214 0.0
0.15000000000755914 0.6999999999518056 0.0
0.15000000000971683 0.749999999951456 0.0
0.15000000001268057 0.7999999999509437 0.0
0.1500000000169489 0.8499999999500512 0.0
0.15000000002341135 0.8999999999487026 0.0
0.15000000003345193 0.9499999999467225 0.0
0.19999999996105186 0.0499999999314911 0.0
0.19999999997252998 0.09999999993348746 0.0
0.19999999998082116 0.14999999993489735 0.0
0.19999999998683934 0.1999999999357239 0.0
0.19999999999129975 0.2499999999361052 0.0
0.19999999999469667 0.29999999993620224 0.0
0.19999999999735882 0.3499999999361407 0.0
0.19999999999951432 0.3999999999360083 0.0
0.20000000000133172 0.4499999999358626 0.0
0.20000000000294643 0.49999999993571975 0.0
0.20000000000448104 0.5499999999351799 0.0
0.2000000000060614 0.59999999993466 0.0
0.2000000000078344 0.6499999999341604 0.0
0.20000000000998866 0.6999999999336399 0.0
0.20000000001278528 0.7499999999330251 0.0
0.20000000001660187 0.7999999999322002 0.0
0.20000000002200286 0.8499999999310083 0.0
0.20000000002979962 0.8999999999295638 0.0
0.20000000004102308 0.9499999999278621 0.0
0.24999999995561392 0.04999999991311203 0.0
0.24999999996788308 0.09999999991475683 0.0
0.24999999997719577 0.14999999991608157 0.0
0.249999999984226 0.19999999991700573 0.0
0.2499999999895706 0.2499999999175684 0.0
0.24999999999369754 0.2999999999178531 0.0
0.24999999999695452 0.34999999991794845 0.0
0.24999999999959902 0.3999999999179267 0.0
0.2500000000018288 0.44999999991783923 0.0
0.25000000000380673 0.4999999999177007 0.0
0.2500000000056815 0.5499999999171287 0.0
0.25000000000760536 0.5999999999165202 0.0
0.2500000000097537 0.6499999999158762 0.0
0.2500000000123475 0.6999999999151612 0.0
0.25000000001568157 0.7499999999143192 0.0
0.2500000000201604 0.799999999913277 0.0
0.2500000000263306 0.8499999999119638 0.0
0.2500000000348914 0.8999999999105978 0.0
0.2500000000466356 0.9499999999092658 0.0
0.2999999999517423 0.04999999989492734 0.0
0.2999999999643965 0.09999999989621548 0.0
0.2999999999743334 0.14999999989737878 0.0
0.2999999999820719 0.1999999998983057 0.0
0.2999999999881012 0.24999999989897362 0.0
0.2999999999928392 0.2999999998994071 0.0
0.2999999999966226 0.3499999998996509 0.0
0.29999999999971744 0.39999999989975116 0.0
0.3000000000023381 0.44999999989974365 0.0
0.3000000000046661 0.4999999998996354 0.0
0.30000000000686783 0.5499999998990578 0.0
0.3000000000091138 0.5999999998983895 0.0
0.30000000001159727 0.6499999998976351 0.0
0.3000000000145553 0.6999999998967736 0.0
0.300000000018293 0.749999999895777 0.0
0.30000000002320726 0.7999999998946212 0.0
0.30000000002980054 0.8499999998933032 0.0
0.3000000000386725 0.8999999998921072 0.0
0.30000000005047184 0.949999999891157 0.0
0.34999999994933617 0.049999999877148704 0.0
0.3499999999620643 0.09999999987809265 0.0
0.3499999999723105 0.14999999987906582 0.0
0.34999999998048725 0.19999999987994074 0.0
0.349999999986998 0.2499999998806593 0.0
0.3499999999922065 0.29999999988120274 0.0
0.34999999999642445 0.3499999998815784 0.0
0.34999999999991166 0.399999999881803 0.0
0.350000000002886 0.44999999988189304 0.0
0.35000000000553716 0.4999999998818436 0.0
0.35000000000804066 0.5499999998812968 0.0
[...]
POINT_DATA 861
SCALARS DISPL_step0 float 1
LOOKUP_TABLE default
0.0
0.0
0.0
0.0
1.6679153299226793e-11
2.945982423444123e-11
4.110293829384743e-11
5.2004769877555564e-11
6.236151325509916e-11
7.222172762142598e-11
8.158749310366046e-11
9.043538137911699e-11
9.873040315104064e-11
1.0643312663416583e-10
1.1350428676635946e-10
1.1990771927395765e-10
1.2561216460628286e-10
1.305921809615198e-10
1.348283287239082e-10
1.3830676842036955e-10
1.4101842918308284e-10
1.429579288345915e-10
1.4412244416382144e-10
1.4451072829174658e-10
1.4412244416381953e-10
1.4295792883458125e-10
1.4101842918306002e-10
1.3830676842033212e-10
1.348283287238559e-10
1.3059218096145382e-10
1.256121646062045e-10
1.199077192738685e-10
1.135042867662618e-10
1.0643312663406202e-10
9.873040315093241e-11
9.043538137900615e-11
8.158749310354879e-11
7.222172762131497e-11
6.23615132549915e-11
5.2004769877465486e-11
4.110293829377985e-11
2.945982423439619e-11
1.667915329920595e-11
0.0
0.0
0.0
0.0
0.0
0.0
0.0
0.0
0.0
0.0
0.0
0.0
0.0
0.0
0.0
0.0
0.0
0.0
0.0
1.7606456558368295e-11
3.0975786357369725e-11
4.301019421336724e-11
5.4120410660130105e-11
6.45025989708734e-11
7.419105566944636e-11
8.316440759507949e-11
9.136640885698528e-11
9.871890469493318e-11
1.0512693431741332e-10
1.1048012443557267e-10
1.1465035646911947e-10
1.1748470528050815e-10
1.1878913186475178e-10
1.1829988116280863e-10
1.1558831944790573e-10
1.1000798578882563e-10
9.936402230307532e-11
8.252951178604764e-11
1.442695404226632e-11
8.252951178673331e-11
9.936402230390559e-11
1.1000798578979084e-10
1.1558831944897614e-10
1.1829988116396033e-10
1.1878913186595562e-10
1.1748470528173476e-10
1.1465035647033871e-10
1.104801244367551e-10
1.0512693431853075e-10
9.871890469595935e-11
9.136640885789626e-11
8.316440759585299e-11
7.419105567006223e-11
6.450259897132146e-11
5.412041066049488e-11
4.301019421365366e-11
3.0975786357573024e-11
1.7606456558480943e-11
0.0
0.0
0.0
0.0
0.0
0.0
0.0
0.0
0.0
0.0
0.0
0.0
0.0
0.0
0.0
0.0
0.0
0.0
0.0
1.0501015622107861e-11
8.855788131514388e-12
8.289326179308542e-12
8.173051061388487e-12
8.245025822161117e-12
8.390025421449643e-12
8.552073653672238e-12
8.70263928922534e-12
8.826607594194617e-12
8.915748295049532e-12
8.965772443583143e-12
8.975433752261753e-12
8.947283823737804e-12
8.890517054549085e-12
8.827535931632173e-12
8.808472299578518e-12
8.944930729498739e-12
9.505381276527428e-12
1.1158355119449067e-11
2.2842531404536255e-11
1.9463933793405854e-11
1.806971310318576e-11
1.7567015544637903e-11
1.7492083998032574e-11
1.7612520856704238e-11
1.780932755633485e-11
1.8019184900286137e-11
1.820770897739654e-11
1.8356441728625622e-11
1.8456832355759984e-11
1.8508399050954496e-11
1.8520335491334612e-11
1.8517416264892787e-11
1.8553248937408505e-11
1.8738207141795475e-11
1.9301389655483703e-11
2.0719906717517002e-11
2.4154936779561613e-11
3.461837343172592e-11
3.078631840891519e-11
2.877047664557038e-11
2.7858030761966457e-11
2.7541402727378206e-11
2.7535019580329173e-11
2.767723933758768e-11
2.7876857527408872e-11
2.808251435089106e-11
2.826650366672127e-11
2.8416837187697556e-11
2.8534722720691687e-11
2.8636665234950906e-11
2.8762160129268932e-11
2.899012117651456e-11
2.9470969835309e-11
3.0484417970890524e-11
3.2549252706193164e-11
3.641817789041921e-11
4.5971110081150365e-11
4.211447038624905e-11
3.98569662969883e-11
3.8660080142043564e-11
3.811769996407564e-11
3.795373094338554e-11
3.799699555206795e-11
3.81440401724022e-11
3.833414026279128e-11
3.85340470950803e-11
3.8729903485239696e-11
3.892445456826786e-11
3.9139005371648366e-11
3.942087128873189e-11
3.985853021043358e-11
4.0607691657826414e-11
4.193232838951664e-11
4.423734276826444e-11
4.8085672820534076e-11
5.6903305269036785e-11
5.3261656400770685e-11
5.097969619239337e-11
4.964910631186353e-11
4.894700099269074e-11
4.864163234995742e-11
4.8576618645065415e-11
4.8651912974889246e-11
4.880646580162081e-11
4.9006337361412786e-11
4.923772452190497e-11
4.9504212163947435e-11
4.982800751015001e-11
5.0255616626322806e-11
5.0868997992239254e-11
5.1803466301999695e-11
5.326986852253682e-11
5.5578868626667944e-11
5.915149643636718e-11
6.741223966784833e-11
6.410733169780404e-11
6.193702272465565e-11
6.058226653592149e-11
5.979162681946929e-11
5.937944088121035e-11
5.921590457605146e-11
5.921460668938269e-11
5.932148829406027e-11
5.950633970559509e-11
5.975729784317851e-11
6.007820111774041e-11
6.04887854702617e-11
6.10280005634405e-11
6.176103408244249e-11
6.27904497326311e-11
6.427211614316489e-11
6.643479973219585e-11
6.960040873899614e-11
7.746224531575161e-11
7.456004919427052e-11
7.258102054091297e-11
7.127659033494212e-11
7.04535296749234e-11
6.996902639675856e-11
6.972207154467088e-11
6.964468303614934e-11
6.96942436209805e-11
6.984748179357906e-11
7.009613605246855e-11
7.044429516695708e-11
7.090746702014307e-11
7.151366260054986e-11
7.230708630435283e-11
7.335554029309142e-11
7.476305415481979e-11
7.668937751027423e-11
7.937505181350515e-11
8.700385399845334e-11
8.453521915945215e-11
8.279193129295269e-11
8.158403132247584e-11
8.076718680989227e-11
8.023627079512832e-11
7.991789224992874e-11
7.976358766386125e-11
7.974419768624346e-11
7.984534375464283e-11
8.006381540145274e-11
8.04047244555791e-11
8.087946593868675e-11
8.150483919646825e-11
8.230420888410858e-11
8.331230449746044e-11
8.458605054633105e-11
8.622385714321155e-11
8.839389919982688e-11
9.598129329560551e-11
9.395360497764375e-11
9.24664947322662e-11
9.138038652201217e-11
9.059247163017272e-11
9.003030553993975e-11
8.964548285819416e-11
8.940829022762719e-11
8.930340609171284e-11
8.932634387779742e-11
8.948025331514442e-11
8.977279236726726e-11
9.021301532297442e-11
9.080866481680978e-11
9.156497367429895e-11
9.248706434134095e-11
9.358895731659708e-11
9.49123954834465e-11
9.65570126752528e-11
1.0433840476413709e-10
1.0274212153871099e-10
1.0151471381291628e-10
1.0056012351634068e-10
9.9810861123331e-11
9.922242615790146e-11
9.876825243952747e-11
9.843561463510414e-11
9.822238829111403e-11
9.813426014030567e-11
9.818188932265098e-11
9.837756170697561e-11
9.873109318583885e-11
9.924523868866007e-11
9.991180439411846e-11
1.007109910256157e-10
1.0161784157048843e-10
1.0262003941000112e-10
1.037496605057377e-10
1.1202251013473604e-10
1.108355771075571e-10
1.0985921390770856e-10
1.090345187953446e-10
1.0832369064233285e-10
1.077056463651627e-10
1.0717225043169661e-10
1.0672538540201649e-10
1.0637470281763066e-10
1.061356382900967e-10
1.0602711847883538e-10
1.060683109717711e-10
1.0627383140846619e-10
1.0664725449140293e-10
1.0717385612148334e-10
1.078154967440495e-10
1.085127651243248e-10
1.0920075420004102e-10
1.0984271385875248e-10
1.1898703802182302e-10
1.1817816055802098e-10
1.174354725731891e-10
1.1673104747819367e-10
1.1605146068953019e-10
1.1539463962996139e-10
1.1476727443984727e-10
1.1418295497720717e-10
1.1366090591968093e-10
1.132249570533759e-10
1.1290216910500945e-10
1.1272029732467123e-10
1.1270305622751383e-10
1.1286216978615933e-10
1.1318622179914815e-10
1.1362882673026387e-10
1.1410322252254332e-10
1.1449325554028987e-10
1.1468973291915363e-10
1.251931016314629e-10
1.247243672526201e-10
1.2419199303118005e-10
1.235930205047296e-10
1.229333489406296e-10
1.2222562000592239e-10
1.2148759107893053e-10
1.2074117489211836e-10
1.2001210345180562e-10
1.193299785946276e-10
1.1872823715043264e-10
1.182431969475421e-10
1.1791077406479278e-10
1.177587744915618e-10
1.1779235158234193e-10
1.1797346468589888e-10
1.182013105296288e-10
1.1831270084299756e-10
1.1811888200122975e-10
1.3061016332828612e-10
1.3043920775943396e-10
1.3009000797418105e-10
1.295788918954118e-10
1.289263639013792e-10
1.2815568196364557e-10
1.2729188153999307e-10
1.2636145385154788e-10
1.253927440795323e-10
1.2441701723004684e-10
1.2346997633617724e-10
1.2259317802143664e-10
1.2183405080734516e-10
1.212417204620034e-10
1.2085365771468626e-10
1.2066565893643995e-10
1.2059181691362074e-10
1.2043397059670353e-10
1.1991643838022322e-10
1.3521588751291785e-10
1.3529767233021744e-10
1.351025327222656e-10
1.3466094200567034e-10
1.34003776500592e-10
1.3316118791891619e-10
1.3216191286190442e-10
1.3103322897587172e-10
1.2980170728931367e-10
1.2849490006991987e-10
1.2714410018784887e-10
1.2578820863424204e-10
1.2447828728558115e-10
1.232809445205136e-10
1.2227476087505546e-10
1.2152657837612468e-10
1.2101672779430446e-10
1.2056342820724016e-10
1.1978823983048655e-10
1.3899531017027426e-10
1.3928351767050892e-10
1.39212753307965e-10
1.3882324193164168e-10
1.3815265790703093e-10
1.3723492828084873e-10
1.3609947315518244e-10
1.3477103706705696e-10
1.332702726223917e-10
1.3161532077534924e-10
1.2982480065698153e-10
1.2792287684874843e-10
1.2594734130401266e-10
1.2396155223054593e-10
1.2206916686097412e-10
1.2042129515663253e-10
1.1917918295528266e-10
1.1826673148039833e-10
1.172985984968658e-10
1.4193949997180979e-10
1.4238753213710215e-10
1.4241187034551221e-10
1.4205898116408508e-10
1.4137055943133487e-10
1.4038200800900123e-10
1.391213423030427e-10
1.3760855688565297e-10
1.358555292444195e-10
1.3386664446379229e-10
1.316405530869356e-10
1.2917392280168435e-10
1.2646891945580586e-10
1.2354778281211008e-10
1.2048080877957017e-10
1.174365024754256e-10
1.1475499056568619e-10
1.1294970012783411e-10
1.1158347961042924e-10
1.440439349621939e-10
1.4460551320898715e-10
1.4469663449067326e-10
1.4436740293761287e-10
1.436615967727542e-10
1.4261473222284013e-10
1.4125252245215489e-10
1.3958962144306106e-10
1.3762856892092292e-10
1.3535890357995014e-10
1.327565241943281e-10
1.2978364218588153e-10
1.2639030700026262e-10
1.2252020533513322e-10
1.181277744095738e-10
1.132285674199492e-10
1.0803459002050333e-10
1.0338742183405241e-10
1.0144713362936262e-10
1.453068525273011e-10
1.4593624416443665e-10
1.4606689237883268e-10
1.4575072300559766e-10
1.4503241260185862e-10
1.4394711497521402e-10
1.425185503585553e-10
1.407572227509273e-10
1.3865852651255735e-10
1.3620046271019031e-10
1.3334059702462217e-10
1.3001172347950558e-10
1.261154181385154e-10
1.2151214255256199e-10
1.1600643690420275e-10
1.0932445393648796e-10
1.0111158141157835e-10
9.099059517298653e-11
8.063246743978498e-11
1.4572783420317885e-10
1.46379770779581e-10
1.4652349529808672e-10
1.462114771781555e-10
1.4548862979009817e-10
1.4438990828931986e-10
1.4293825607842693e-10
1.411426166516247e-10
1.3899570748186786e-10
1.3647116814612854e-10
1.335195055872318e-10
1.3006186820645914e-10
1.259798309570747e-10
1.2109753843107237e-10
1.1514739051758325e-10
1.0769958598986973e-10
9.797134850885455e-11
8.435000324145206e-11
6.119734806942912e-11
1.4530685252728484e-10
1.4593624416440545e-10
1.4606689237878555e-10
1.4575072300553386e-10
1.4503241260177698e-10
1.4394711497511337e-10
1.4251855035843428e-10
1.4075722275078464e-10
1.386585265123917e-10
1.3620046270999998e-10
1.3334059702440325e-10
1.3001172347925513e-10
1.2611541813823e-10
1.21512142552237e-10
1.1600643690383141e-10
1.0932445393606021e-10
1.0111158141107782e-10
9.099059517238877e-11
8.063246743911341e-11
1.44043934962156e-10
1.4460551320892082e-10
1.446966344905771e-10
1.4436740293748502e-10
1.436615967725927e-10
1.426147322226427e-10
1.4125252245191906e-10
1.395896214427843e-10
1.3762856892060257e-10
1.3535890357958326e-10
1.3275652419390714e-10
1.2978364218540133e-10
1.263903069997174e-10
1.225202053345161e-10
1.1812777440887696e-10
1.1322856741916509e-10
1.080345900196307e-10
1.0338742183312415e-10
1.0144713362847385e-10
1.4193949997174827e-10
1.4238753213700069e-10
1.4241187034536872e-10
1.420589811638972e-10
1.4137055943109995e-10
1.4038200800871583e-10
1.391213423027039e-10
1.3760855688525745e-10
1.3585552924396364e-10
1.3386664446327204e-10
1.3164055308634145e-10
1.2917392280101093e-10
1.2646891945504806e-10
1.2354778281126377e-10
1.204808087786347e-10
1.1743650247440852e-10
1.1475499056461401e-10
1.1294970012676546e-10
1.1158347960941274e-10
1.389953101701892e-10
1.3928351767037435e-10
1.3921275330777864e-10
1.388232419314004e-10
1.381526579067316e-10
1.3723492828048795e-10
1.3609947315475668e-10
1.3477103706656238e-10
1.3327027262182436e-10
1.316153207747048e-10
1.2982480065625075e-10
1.2792287684792738e-10
1.25947341303099e-10
1.2396155222954122e-10
1.2206916685988684e-10
1.2042129515548262e-10
1.1917918295410615e-10
1.1826673147923792e-10
1.1729859849574824e-10
1.3521588751281135e-10
1.3529767233005444e-10
1.3510253272204295e-10
1.3466094200538512e-10
1.3400377650024067e-10
1.331611879184953e-10
1.3216191286141044e-10
1.3103322897530089e-10
1.2980170728866214e-10
1.2849490006918404e-10
1.2714410018702052e-10
1.2578820863331953e-10
1.2447828728456623e-10
1.23280944519413e-10
1.2227476087388345e-10
1.2152657837490536e-10
1.210167277930685e-10
1.205634282060169e-10
1.1978823982929466e-10
1.306101633281623e-10
1.3043920775924862e-10
1.3009000797393085e-10
1.2957889189509348e-10
1.2892636390098977e-10
1.2815568196318157e-10
1.2729188153945106e-10
1.2636145385092465e-10
1.2539274407882463e-10
1.2441701722925205e-10
1.2346997633528913e-10
1.2259317802045605e-10
1.2183405080627686e-10
1.2124172046085726e-10
1.2085365771347845e-10
1.206656589351922e-10
1.205918169123573e-10
1.2043397059544495e-10
1.19916438378985e-10
1.251931016313258e-10
1.2472436725241929e-10
1.241919930309115e-10
1.235930205043902e-10
1.2293334894021632e-10
1.2222562000543244e-10
1.214875910783608e-10
1.2074117489146633e-10
1.200121034510691e-10
1.1932997859380444e-10
1.1872823714951943e-10
1.182431969465415e-10
1.1791077406371126e-10
1.1775877449040997e-10
1.1779235158113492e-10
1.1797346468465482e-10
1.182013105283666e-10
1.183127008417322e-10
1.1811888199997525e-10
1.1898703802167743e-10
1.181781605578117e-10
1.174354725729117e-10
1.1673104747784506e-10
1.1605146068910745e-10
1.1539463962946224e-10
1.147672744392697e-10
1.1418295497654898e-10
1.1366090591894057e-10
1.1322495705255277e-10
1.129021691041018e-10
1.1272029732368316e-10
1.1270305622645216e-10
1.1286216978503416e-10
1.1318622179797268e-10
1.136288267290525e-10
1.1410322252131055e-10
1.1449325553904747e-10
1.1468973291791371e-10
1.1202251013458683e-10
1.1083557710734678e-10
1.0985921390743181e-10
1.0903451879499812e-10
1.0832369064191427e-10
1.0770564636467024e-10
1.0717225043112896e-10
1.067253854013724e-10
1.0637470281690932e-10
1.0613563828929803e-10
1.0602711847795986e-10
1.0606831097082299e-10
1.0627383140745234e-10
1.0664725449033219e-10
1.071738561203664e-10
1.0781549674289793e-10
1.0851276512314943e-10
1.0920075419885077e-10
1.0984271385755777e-10
1.0433840476398914e-10
1.0274212153850686e-10
1.0151471381264921e-10
1.0056012351600735e-10
9.981086112292917e-11
9.922242615743011e-11
9.876825243898595e-11
9.843561463449203e-11
9.822238829043146e-11
9.813426013955308e-11
9.818188932183035e-11
9.837756170609147e-11
9.873109318489695e-11
9.924523868766804e-11
9.991180439308447e-11
1.0071099102454857e-10
1.0161784156939697e-10
1.0262003940889141e-10
1.0374966050461693e-10
9.598129329546319e-11
9.395360497745187e-11
9.246649473201681e-11
9.138038652170135e-11
9.059247162979875e-11
9.003030553950186e-11
8.964548285769268e-11
8.94082902270626e-11
8.930340609108602e-11
8.932634387710912e-11
8.948025331439814e-11
8.977279236646699e-11
9.021301532212515e-11
9.080866481591745e-11
9.156497367336976e-11
9.248706434038157e-11
9.358895731561408e-11
9.49123954824437e-11
9.655701267423317e-11
8.70038539983207e-11
8.453521915927833e-11
8.279193129272794e-11
8.15840313221961e-11
8.07671868095553e-11
8.023627079473442e-11
7.991789224947902e-11
7.976358766335703e-11
7.974419768568617e-11
7.984534375403414e-11
8.006381540079654e-11
8.04047244548793e-11
8.087946593794744e-11
8.150483919569364e-11
8.230420888330332e-11
8.331230449662907e-11
8.458605054547889e-11
8.62238571423394e-11
8.839389919893296e-11
7.746224531563198e-11
7.45600491941195e-11
7.258102054071866e-11
7.127659033469966e-11
7.045352967463093e-11
6.996902639641686e-11
6.97220715442817e-11
6.964468303571526e-11
6.969424362050364e-11
6.984748179306154e-11
7.00961360519152e-11
7.04442951663711e-11
7.090746701952782e-11
7.151366259990804e-11
7.230708630368748e-11
7.335554029240565e-11
7.476305415411767e-11
7.668937750955367e-11
7.937505181275897e-11
6.741223966774496e-11
6.410733169767993e-11
6.193702272449641e-11
6.058226653572115e-11
5.979162681922643e-11
5.937944088092645e-11
5.921590457572963e-11
5.921460668902595e-11
5.932148829367141e-11
5.950633970517734e-11
5.975729784273684e-11
6.007820111727767e-11
6.048878546978043e-11
6.10280005629425e-11
6.176103408192941e-11
6.279044973210475e-11
6.427211614262853e-11
6.643479973164471e-11
6.960040873841723e-11
5.690330526895315e-11
5.326165640067641e-11
5.097969619227135e-11
4.964910631170693e-11
4.894700099249885e-11
4.864163234973285e-11
4.857661864481207e-11
4.865191297461108e-11
4.88064658013217e-11
4.9006337361096177e-11
4.923772452157621e-11
4.9504212163608924e-11
4.98280075098034e-11
5.025561662596927e-11
5.086899799187972e-11
5.180346630163516e-11
5.326986852216974e-11
5.557886862629209e-11
5.915149643596355e-11
4.59711100810957e-11
4.2114470386186936e-11
3.985696629689916e-11
3.866008014192069e-11
3.811769996391975e-11
3.795373094320051e-11
3.799699555185884e-11
3.8144040172173485e-11
3.833414026254723e-11
3.8534047094824785e-11
3.872990348497758e-11
3.892445456800102e-11
3.9139005371377717e-11
3.9420871288458045e-11
3.985853021015643e-11
4.0607691657546666e-11
4.193232838923663e-11
4.4237342767978376e-11
4.808567282022003e-11
3.4618373431702586e-11
3.078631840888398e-11
2.877047664551091e-11
2.7858030761874617e-11
2.7541402727257186e-11
2.7535019580183674e-11
2.7677239337423028e-11
2.7876857527230153e-11
2.808251435070202e-11
2.8266503666525436e-11
2.8416837187499518e-11
2.8534722720492766e-11
2.8636665234751216e-11
2.8762160129068606e-11
2.8990121176312827e-11
2.947096983510618e-11
3.0484417970689073e-11
3.254925270598837e-11
3.641817789018798e-11
2.2842531404538413e-11
1.9463933793395014e-11
1.8069713103147058e-11
1.7567015544572672e-11
1.7492083997944957e-11
1.761252085659934e-11
1.7809327556217192e-11
1.8019184900159647e-11
1.8207708977264443e-11
1.8356441728491056e-11
1.845683235562628e-11
1.850839905082239e-11
1.8520335491203933e-11
1.8517416264763323e-11
1.855324893727959e-11
1.8738207141666846e-11
1.9301389655356928e-11
2.0719906717390715e-11
2.415493677941398e-11
1.0501015622119463e-11
8.855788131508695e-12
8.289326179285355e-12
8.173051061350307e-12
8.245025822111168e-12
8.390025421390984e-12
8.552073653607539e-12
8.702639289156649e-12
8.826607594124127e-12
8.915748294979049e-12
8.965772443514566e-12
8.975433752195572e-12
8.947283823673537e-12
8.890517054486581e-12
8.827535931570921e-12
8.808472299518174e-12
8.944930729440247e-12
9.505381276470793e-12
1.1158355119385022e-11

