# vtk DataFile Version 2.0
mesh vtk view
ASCII
DATASET UNSTRUCTURED_GRID
POINTS 861 double
0.0 0.0 0.0
2.0 0.0 0.0
2.0 1.0 0.0
0.0 1.0 0.0
0.05000000002136778 1.889261274470051e-11 0.0
0.10000000003559194 3.562858349658031e-11 0.0
0.1500000000459979 5.3121944923492396e-11 0.0
0.20000000005376944 7.082903061062842e-11 0.0
0.25000000005933565 8.862366492603624e-11 0.0
0.30000000006292177 1.0627551017229742e-10 0.0
0.35000000006477977 1.2356929760784901e-10 0.0
0.4000000000650803 1.402983063407766e-10 0.0
0.45000000006397367 1.5627157764696246e-10 0.0
0.500000000061603 1.7131642077966075e-10 0.0
0.5500000000581087 1.8528073945984694e-10 0.0
0.6000000000536294 1.9803450968830092e-10 0.0
0.6500000000483007 2.0947037380690877e-10 0.0
0.7000000000422544 2.1950320466454507e-10 0.0
0.7500000000356156 2.2806862124246535e-10 0.0
0.8000000000285024 2.3512056289126655e-10 0.0
0.8500000000210239 2.406281653371798e-10 0.0
0.9000000000132807 2.445722986509259e-10 0.0
0.950000000005366 2.4694220349780995e-10 0.0
0.9999999999973885 2.4773267707156554e-10 0.0
1.0499999999896448 2.469422034977979e-10 0.0
1.0999999999820076 2.445722986508893e-10 0.0
1.1499999999745423 2.406281653371109e-10 0.0
1.1999999999673416 2.351205628911626e-10 0.0
1.2499999999605047 2.2806862124232705e-10 0.0
1.299999999954144 2.1950320466437627e-10 0.0
1.3499999999483752 2.0947037380671366e-10 0.0
1.3999999999433235 1.980345096880844e-10 0.0
1.4499999999391218 1.85280739459615e-10 0.0
1.4999999999359044 1.7131642077941942e-10 0.0
1.5499999999338114 1.562715776467164e-10 0.0
1.5999999999329824 1.4029830634053068e-10 0.0
1.6499999999335597 1.2356929760760797e-10 0.0
1.6999999999356954 1.0627551017206561e-10 0.0
1.749999999939554 8.86236649258202e-11 0.0
1.7999999999453338 7.082903061045406e-11 0.0
1.8499999999533128 5.3121944923366917e-11 0.0
1.8999999999639443 3.562858349649974e-11 0.0
1.949999999978407 1.8892612744659867e-11 0.0
2.0 0.04999999999989965 0.0
2.0 0.09999999999981467 0.0
2.0 0.1499999999997036 0.0
2.0 0.1999999999995579 0.0
2.0 0.2499999999994121 0.0
2.0 0.2999999999992664 0.0
2.0 0.3499999999991206 0.0
2.0 0.3999999999989749 0.0
2.0 0.4499999999988292 0.0
2.0 0.4999999999986943 0.0
2.0 0.5499999999988151 0.0
2.0 0.5999999999989468 0.0
2.0 0.6499999999990784 0.0
2.0 0.69999999999921 0.0
2.0 0.7499999999993417 0.0
2.0 0.7999999999994734 0.0
2.0 0.8499999999996051 0.0
2.0 0.8999999999997368 0.0
2.0 0.9499999999998684 0.0
1.9500000000223174 1.0000000000200895 0.0
1.9000000000369401 1.0000000000377396 0.0
1.8500000000474175 1.000000000055931 0.0
1.8000000000550223 1.0000000000740805 0.0
1.7500000000602727 1.0000000000920486 0.0
1.7000000000638729 1.0000000001095768 0.0
1.650000000065583 1.000000000126407 0.0
1.6000000000655072 1.0000000001422715 0.0
1.5500000000637755 1.0000000001568958 0.0
1.500000000060516 1.0000000001699987 0.0
1.4500000000558562 1.0000000001812883 0.0
1.40000000004993 1.0000000001904545 0.0
1.3500000000428785 1.0000000001971547 0.0
1.3000000000348533 1.000000000200984 0.0
1.2500000000260134 1.0000000002014235 0.0
1.2000000000165196 1.000000000197674 0.0
1.1500000000066126 1.0000000001885527 0.0
1.0999999999964996 1.0000000001701959 0.0
1.0499999999899154 1.0000000001407947 0.0
1.000000000004117 1.000000000024732 0.0
0.9500000000178515 1.0000000001407947 0.0
0.9000000000107122 1.0000000001701959 0.0
0.8500000000000453 1.0000000001885527 0.0
0.799999999989583 1.000000000197674 0.0
0.7499999999795341 1.0000000002014235 0.0
0.6999999999701394 1.000000000200984 0.0
0.649999999961559 1.0000000001971547 0.0
0.5999999999539535 1.0000000001904545 0.0
0.5499999999474722 1.0000000001812883 0.0
0.4999999999422574 1.0000000001699987 0.0
0.449999999938443 1.0000000001568958 0.0
0.3999999999361572 1.0000000001422715 0.0
0.3499999999355265 1.000000000126407 0.0
0.2999999999366814 1.0000000001095768 0.0
0.2499999999397696 1.0000000000920486 0.0
0.19999999994497672 1.0000000000740805 0.0
0.14999999995258181 1.000000000055931 0.0
0.09999999996305986 1.0000000000377396 0.0
0.04999999997768258 1.0000000000200895 0.0
0.0 0.9499999999997918 0.0
0.0 0.8999999999995836 0.0
0.0 0.8499999999996529 0.0
0.0 0.7999999999999998 0.0
0.0 0.7500000000003466 0.0
0.0 0.7000000000006934 0.0
0.0 0.6500000000010401 0.0
0.0 0.6000000000013869 0.0
0.0 0.5500000000017335 0.0
0.0 0.5000000000020587 0.0
0.0 0.4500000000018723 0.0
0.0 0.4000000000016644 0.0
0.0 0.3500000000014564 0.0
0.0 0.3000000000012483 0.0
0.0 0.2500000000010403 0.0
0.0 0.2000000000008322 0.0
0.0 0.1500000000006241 0.0
0.0 0.100000000000416 0.0
0.0 0.05000000000020799 0.0
0.05000000001086952 0.05000000001448976 0.0
0.05000000000725246 0.10000000001370286 0.0
0.05000000000500603 0.1500000000138819 0.0
0.05000000000350026 0.2000000000143582 0.0
0.0500000000024008 0.25000000001492517 0.0
0.05000000000156201 0.30000000001549626 0.0
0.050000000000897764 0.35000000001603193 0.0
0.05000000000035264 0.4000000000165123 0.0
0.04999999999988639 0.4500000000169268 0.0
0.04999999999946659 0.5000000000172473 0.0
0.049999999999063585 0.5500000000169973 0.0
0.04999999999864685 0.6000000000166449 0.0
0.04999999999818101 0.6500000000162084 0.0
0.04999999999762076 0.7000000000156912 0.0
0.049999999996902765 0.7500000000151059 0.0
0.04999999999592915 0.8000000000144857 0.0
0.04999999999453676 0.8500000000139165 0.0
0.04999999999235926 0.9000000000138842 0.0
0.04999999998871135 0.9500000000150932 0.0
0.10000000002209748 0.050000000032403805 0.0
0.10000000001440759 0.10000000003041482 0.0
0.10000000000986284 0.1500000000299061 0.0
0.10000000000678481 0.20000000003009114 0.0
0.10000000000457325 0.2500000000305872 0.0
0.10000000000290715 0.3000000000312002 0.0
0.10000000000160499 0.3500000000318284 0.0
0.10000000000054962 0.4000000000324158 0.0
0.09999999999965732 0.4500000000329306 0.0
0.09999999999886157 0.5000000000333341 0.0
0.09999999999810202 0.5500000000331624 0.0
0.09999999999731664 0.6000000000328649 0.0
0.09999999999643303 0.6500000000324669 0.0
0.09999999999535686 0.700000000031987 0.0
0.09999999999395448 0.7500000000314703 0.0
0.09999999999201968 0.8000000000310126 0.0
0.09999999998919347 0.8500000000308103 0.0
0.09999999998481458 0.9000000000315314 0.0
0.09999999997706571 0.9500000000340135 0.0
0.1500000000312126 0.050000000050505124 0.0
0.15000000002121197 0.1000000000486077 0.0
0.15000000001454356 0.1500000000476342 0.0
0.15000000000995006 0.20000000004742147 0.0
0.15000000000662952 0.25000000004765505 0.0
0.15000000000413988 0.30000000004811894 0.0
0.15000000000220867 0.3500000000486777 0.0
0.1500000000006574 0.4000000000492479 0.0
0.14999999999935773 0.4500000000497795 0.0
0.14999999999820765 0.5000000000502235 0.0
0.14999999999711508 0.5500000000501307 0.0
0.14999999999598554 0.6000000000499337 0.0
0.14999999999470798 0.6500000000496645 0.0
0.14999999999313823 0.7000000000493587 0.0
0.14999999999107258 0.7500000000490864 0.0
0.1499999999882006 0.8000000000489769 0.0
0.14999999998402408 0.8500000000492478 0.0
0.14999999997765345 0.9000000000504876 0.0
0.14999999996770486 0.9500000000528729 0.0
0.20000000003832716 0.0500000000688632 0.0
0.20000000002696922 0.10000000006722434 0.0
0.20000000001879822 0.15000000006616668 0.0
0.20000000001290044 0.2000000000656855 0.0
0.20000000000856027 0.2500000000656496 0.0
0.20000000000528353 0.30000000006589794 0.0
0.2000000000027418 0.35000000006630483 0.0
0.20000000000070647 0.4000000000667825 0.0
0.19999999999900947 0.45000000006727336 0.0
0.19999999999751494 0.5000000000677248 0.0
0.19999999999610057 0.5500000000677034 0.0
0.19999999999464038 0.6000000000676257 0.0
0.1999999999929878 0.6500000000675275 0.0
0.19999999999095372 0.70000000006745 0.0
0.19999999998827733 0.7500000000674674 0.0
0.19999999998458115 0.8000000000676942 0.0
0.19999999997930035 0.850000000068288 0.0
0.199999999971624 0.900000000069634 0.0
0.19999999996052054 0.9500000000717366 0.0
0.2500000000436303 0.05000000008722685 0.0
0.2500000000315105 0.10000000008592477 0.0
0.2500000000223472 0.1500000000849366 0.0
0.2500000000154662 0.20000000008434005 0.0
0.2500000000102708 0.2500000000841051 0.0
0.2500000000062931 0.30000000008414807 0.0
0.2500000000031853 0.3500000000843803 0.0
0.25000000000069017 0.4000000000847297 0.0
0.24999999999860983 0.45000000008514474 0.0
0.249999999996781 0.5000000000855755 0.0
0.24999999999505543 0.550000000085609 0.0
0.24999999999328082 0.6000000000856434 0.0
0.24999999999128192 0.6500000000857135 0.0
0.24999999998883757 0.7000000000858546 0.0
0.24999999998565262 0.7500000000861227 0.0
0.24999999998132325 0.8000000000865908 0.0
0.24999999997530217 0.85000000008733 0.0
0.24999999996689057 0.9000000000886076 0.0
0.24999999995529565 0.9500000000903374 0.0
0.30000000004725613 0.05000000010539616 0.0
0.3000000000347861 0.10000000010443612 0.0
0.3000000000250332 0.1500000001035932 0.0
0.3000000000174787 0.2000000001029763 0.0
0.30000000001163357 0.25000000010261836 0.0
0.3000000000070798 0.3000000001024951 0.0
0.30000000000348065 0.35000000010256105 0.0
0.30000000000056976 0.40000000010277087 0.0
0.29999999999813304 0.4500000001030881 0.0
0.29999999999598936 0.5000000001034726 0.0
0.2999999999939716 0.5500000001035338 0.0
0.29999999999190957 0.6000000001036522 0.0
0.2999999999896103 0.6500000001038564 0.0
0.29999999998683646 0.7000000001041684 0.0
0.2999999999832828 0.7500000001046149 0.0
0.29999999997855276 0.8000000001052208 0.0
0.29999999997214344 0.8500000001059882 0.0
0.29999999996345567 0.9000000001071061 0.0
0.2999999999518404 0.9500000001084496 0.0
0.35000000004940646 0.050000000123159374 0.0
0.35000000003689724 0.10000000012252876 0.0
0.35000000002687065 0.1500000001218602 0.0
0.3500000000189135 0.20000000012127764 0.0
0.3500000000126224 0.2500000001208513 0.0
0.35000000000763315 0.3000000001206 0.0
0.3500000000036348 0.35000000012051674 0.0
0.3500000000003672 0.40000000012058434 0.0
0.3499999999976122 0.4500000001207865 0.0
0.34999999999518067 0.5000000001210967 0.0
0.34999999999289655 0.5500000001211487 0.0
0.34999999999058173 0.6000000001213068 0.0
[...]
POINT_DATA 861
SCALARS DISPL_step0 float 1
LOOKUP_TABLE default
0.0
0.0
0.0
0.0
1.6679153299226793e-11
2.945982423444123e-11
4.110293829384743e-11
5.2004769877555564e-11
6.236151325509916e-11
7.222172762142598e-11
8.158749310366046e-11
9.043538137911699e-11
9.873040315104064e-11
1.0643312663416583e-10
1.1350428676635946e-10
1.1990771927395765e-10
1.2561216460628286e-10
1.305921809615198e-10
1.348283287239082e-10
1.3830676842036955e-10
1.4101842918308284e-10
1.429579288345915e-10
1.4412244416382144e-10
1.4451072829174658e-10
1.4412244416381953e-10
1.4295792883458125e-10
1.4101842918306002e-10
1.3830676842033212e-10
1.348283287238559e-10
1.3059218096145382e-10
1.256121646062045e-10
1.199077192738685e-10
1.135042867662618e-10
1.0643312663406202e-10
9.873040315093241e-11
9.043538137900615e-11
8.158749310354879e-11
7.222172762131497e-11
6.23615132549915e-11
5.2004769877465486e-11
4.110293829377985e-11
2.945982423439619e-11
1.667915329920595e-11
0.0
0.0
0.0
0.0
0.0
0.0
0.0
0.0
0.0
0.0
0.0
0.0
0.0
0.0
0.0
0.0
0.0
0.0
0.0
1.7606456558368295e-11
3.0975786357369725e-11
4.301019421336724e-11
5.4120410660130105e-11
6.45025989708734e-11
7.419105566944636e-11
8.316440759507949e-11
9.136640885698528e-11
9.871890469493318e-11
1.0512693431741332e-10
1.1048012443557267e-10
1.1465035646911947e-10
1.1748470528050815e-10
1.1878913186475178e-10
1.1829988116280863e-10
1.1558831944790573e-10
1.1000798578882563e-10
9.936402230307532e-11
8.252951178604764e-11
1.442695404226632e-11
8.252951178673331e-11
9.936402230390559e-11
1.1000798578979084e-10
1.1558831944897614e-10
1.1829988116396033e-10
1.1878913186595562e-10
1.1748470528173476e-10
1.1465035647033871e-10
1.104801244367551e-10
1.0512693431853075e-10
9.871890469595935e-11
9.136640885789626e-11
8.316440759585299e-11
7.419105567006223e-11
6.450259897132146e-11
5.412041066049488e-11
4.301019421365366e-11
3.0975786357573024e-11
1.7606456558480943e-11
0.0
0.0
0.0
0.0
0.0
0.0
0.0
0.0
0.0
0.0
0.0
0.0
0.0
0.0
0.0
0.0
0.0
0.0
0.0
1.0501015622107861e-11
8.855788131514388e-12
8.289326179308542e-12
8.173051061388487e-12
8.245025822161117e-12
8.390025421449643e-12
8.552073653672238e-12
8.70263928922534e-12
8.826607594194617e-12
8.915748295049532e-12
8.965772443583143e-12
8.975433752261753e-12
8.947283823737804e-12
8.890517054549085e-12
8.827535931632173e-12
8.808472299578518e-12
8.944930729498739e-12
9.505381276527428e-12
1.1158355119449067e-11
2.2842531404536255e-11
1.9463933793405854e-11
1.806971310318576e-11
1.7567015544637903e-11
1.7492083998032574e-11
1.7612520856704238e-11
1.780932755633485e-11
1.8019184900286137e-11
1.820770897739654e-11
1.8356441728625622e-11
1.8456832355759984e-11
1.8508399050954496e-11
1.8520335491334612e-11
1.8517416264892787e-11
1.8553248937408505e-11
1.8738207141795475e-11
1.9301389655483703e-11
2.0719906717517002e-11
2.4154936779561613e-11
3.461837343172592e-11
3.078631840891519e-11
2.877047664557038e-11
2.7858030761966457e-11
2.7541402727378206e-11
2.7535019580329173e-11
2.767723933758768e-11
2.7876857527408872e-11
2.808251435089106e-11
2.826650366672127e-11
2.8416837187697556e-11
2.8534722720691687e-11
2.8636665234950906e-11
2.8762160129268932e-11
2.899012117651456e-11
2.9470969835309e-11
3.0484417970890524e-11
3.2549252706193164e-11
3.641817789041921e-11
4.5971110081150365e-11
4.211447038624905e-11
3.98569662969883e-11
3.8660080142043564e-11
3.811769996407564e-11
3.795373094338554e-11
3.799699555206795e-11
3.81440401724022e-11
3.833414026279128e-11
3.85340470950803e-11
3.8729903485239696e-11
3.892445456826786e-11
3.9139005371648366e-11
3.942087128873189e-11
3.985853021043358e-11
4.0607691657826414e-11
4.193232838951664e-11
4.423734276826444e-11
4.8085672820534076e-11
5.6903305269036785e-11
5.3261656400770685e-11
5.097969619239337e-11
4.964910631186353e-11
4.894700099269074e-11
4.864163234995742e-11
4.8576618645065415e-11
4.8651912974889246e-11
4.880646580162081e-11
4.9006337361412786e-11
4.923772452190497e-11
4.9504212163947435e-11
4.982800751015001e-11
5.0255616626322806e-11
5.0868997992239254e-11
5.1803466301999695e-11
5.326986852253682e-11
5.5578868626667944e-11
5.915149643636718e-11
6.741223966784833e-11
6.410733169780404e-11
6.193702272465565e-11
6.058226653592149e-11
5.979162681946929e-11
5.937944088121035e-11
5.921590457605146e-11
5.921460668938269e-11
5.932148829406027e-11
5.950633970559509e-11
5.975729784317851e-11
6.007820111774041e-11
6.04887854702617e-11
6.10280005634405e-11
6.176103408244249e-11
6.27904497326311e-11
6.427211614316489e-11
6.643479973219585e-11
6.960040873899614e-11
7.746224531575161e-11
7.456004919427052e-11
7.258102054091297e-11
7.127659033494212e-11
7.04535296749234e-11
6.996902639675856e-11
6.972207154467088e-11
6.964468303614934e-11
6.96942436209805e-11
6.984748179357906e-11
7.009613605246855e-11
7.044429516695708e-11
7.090746702014307e-11
7.151366260054986e-11
7.230708630435283e-11
7.335554029309142e-11
7.476305415481979e-11
7.668937751027423e-11
7.937505181350515e-11
8.700385399845334e-11
8.453521915945215e-11
8.279193129295269e-11
8.158403132247584e-11
8.076718680989227e-11
8.023627079512832e-11
7.991789224992874e-11
7.976358766386125e-11
7.974419768624346e-11
7.984534375464283e-11
8.006381540145274e-11
8.04047244555791e-11
8.087946593868675e-11
8.150483919646825e-11
8.230420888410858e-11
8.331230449746044e-11
8.458605054633105e-11
8.622385714321155e-11
8.839389919982688e-11
9.598129329560551e-11
9.395360497764375e-11
9.24664947322662e-11
9.138038652201217e-11
9.059247163017272e-11
9.003030553993975e-11
8.964548285819416e-11
8.940829022762719e-11
8.930340609171284e-11
8.932634387779742e-11
8.948025331514442e-11
8.977279236726726e-11
9.021301532297442e-11
9.080866481680978e-11
9.156497367429895e-11
9.248706434134095e-11
9.358895731659708e-11
9.49123954834465e-11
9.65570126752528e-11
1.0433840476413709e-10
1.0274212153871099e-10
1.0151471381291628e-10
1.0056012351634068e-10
9.9810861123331e-11
9.922242615790146e-11
9.876825243952747e-11
9.843561463510414e-11
9.822238829111403e-11
9.813426014030567e-11
9.818188932265098e-11
9.837756170697561e-11
9.873109318583885e-11
9.924523868866007e-11
9.991180439411846e-11
1.007109910256157e-10
1.0161784157048843e-10
1.0262003941000112e-10
1.037496605057377e-10
1.1202251013473604e-10
1.108355771075571e-10
1.0985921390770856e-10
1.090345187953446e-10
1.0832369064233285e-10
1.077056463651627e-10
1.0717225043169661e-10
1.0672538540201649e-10
1.0637470281763066e-10
1.061356382900967e-10
1.0602711847883538e-10
1.060683109717711e-10
1.0627383140846619e-10
1.0664725449140293e-10
1.0717385612148334e-10
1.078154967440495e-10
1.085127651243248e-10
1.0920075420004102e-10
1.0984271385875248e-10
1.1898703802182302e-10
1.1817816055802098e-10
1.174354725731891e-10
1.1673104747819367e-10
1.1605146068953019e-10
1.1539463962996139e-10
1.1476727443984727e-10
1.1418295497720717e-10
1.1366090591968093e-10
1.132249570533759e-10
1.1290216910500945e-10
1.1272029732467123e-10
1.1270305622751383e-10
1.1286216978615933e-10
1.1318622179914815e-10
1.1362882673026387e-10
1.1410322252254332e-10
1.1449325554028987e-10
1.1468973291915363e-10
1.251931016314629e-10
1.247243672526201e-10
1.2419199303118005e-10
1.235930205047296e-10
1.229333489406296e-10
1.2222562000592239e-10
1.2148759107893053e-10
1.2074117489211836e-10
1.2001210345180562e-10
1.193299785946276e-10
1.1872823715043264e-10
1.182431969475421e-10
1.1791077406479278e-10
1.177587744915618e-10
1.1779235158234193e-10
1.1797346468589888e-10
1.182013105296288e-10
1.1831270084299756e-10
1.1811888200122975e-10
1.3061016332828612e-10
1.3043920775943396e-10
1.3009000797418105e-10
1.295788918954118e-10
1.289263639013792e-10
1.2815568196364557e-10
1.2729188153999307e-10
1.2636145385154788e-10
1.253927440795323e-10
1.2441701723004684e-10
1.2346997633617724e-10
1.2259317802143664e-10
1.2183405080734516e-10
1.212417204620034e-10
1.2085365771468626e-10
1.2066565893643995e-10
1.2059181691362074e-10
1.2043397059670353e-10
1.1991643838022322e-10
1.3521588751291785e-10
1.3529767233021744e-10
1.351025327222656e-10
1.3466094200567034e-10
1.34003776500592e-10
1.3316118791891619e-10
1.3216191286190442e-10
1.3103322897587172e-10
1.2980170728931367e-10
1.2849490006991987e-10
1.2714410018784887e-10
1.2578820863424204e-10
1.2447828728558115e-10
1.232809445205136e-10
1.2227476087505546e-10
1.2152657837612468e-10
1.2101672779430446e-10
1.2056342820724016e-10
1.1978823983048655e-10
1.3899531017027426e-10
1.3928351767050892e-10
1.39212753307965e-10
1.3882324193164168e-10
1.3815265790703093e-10
1.3723492828084873e-10
1.3609947315518244e-10
1.3477103706705696e-10
1.332702726223917e-10
1.3161532077534924e-10
1.2982480065698153e-10
1.2792287684874843e-10
1.2594734130401266e-10
1.2396155223054593e-10
1.2206916686097412e-10
1.2042129515663253e-10
1.1917918295528266e-10
1.1826673148039833e-10
1.172985984968658e-10
1.4193949997180979e-10
1.4238753213710215e-10
1.4241187034551221e-10
1.4205898116408508e-10
1.4137055943133487e-10
1.4038200800900123e-10
1.391213423030427e-10
1.3760855688565297e-10
1.358555292444195e-10
1.3386664446379229e-10
1.316405530869356e-10
1.2917392280168435e-10
1.2646891945580586e-10
1.2354778281211008e-10
1.2048080877957017e-10
1.174365024754256e-10
1.1475499056568619e-10
1.1294970012783411e-10
1.1158347961042924e-10
1.440439349621939e-10
1.4460551320898715e-10
1.4469663449067326e-10
1.4436740293761287e-10
1.436615967727542e-10
1.4261473222284013e-10
1.4125252245215489e-10
1.3958962144306106e-10
1.3762856892092292e-10
1.3535890357995014e-10
1.327565241943281e-10
1.2978364218588153e-10
1.2639030700026262e-10
1.2252020533513322e-10
1.181277744095738e-10
1.132285674199492e-10
1.0803459002050333e-10
1.0338742183405241e-10
1.0144713362936262e-10
1.453068525273011e-10
1.4593624416443665e-10
1.4606689237883268e-10
1.4575072300559766e-10
1.4503241260185862e-10
1.4394711497521402e-10
1.425185503585553e-10
1.407572227509273e-10
1.3865852651255735e-10
1.3620046271019031e-10
1.3334059702462217e-10
1.3001172347950558e-10
1.261154181385154e-10
1.2151214255256199e-10
1.1600643690420275e-10
1.0932445393648796e-10
1.0111158141157835e-10
9.099059517298653e-11
8.063246743978498e-11
1.4572783420317885e-10
1.46379770779581e-10
1.4652349529808672e-10
1.462114771781555e-10
1.4548862979009817e-10
1.4438990828931986e-10
1.4293825607842693e-10
1.411426166516247e-10
1.3899570748186786e-10
1.3647116814612854e-10
1.335195055872318e-10
1.3006186820645914e-10
1.259798309570747e-10
1.2109753843107237e-10
1.1514739051758325e-10
1.0769958598986973e-10
9.797134850885455e-11
8.435000324145206e-11
6.119734806942912e-11
1.4530685252728484e-10
1.4593624416440545e-10
1.4606689237878555e-10
1.4575072300553386e-10
1.4503241260177698e-10
1.4394711497511337e-10
1.4251855035843428e-10
1.4075722275078464e-10
1.386585265123917e-10
1.3620046270999998e-10
1.3334059702440325e-10
1.3001172347925513e-10
1.2611541813823e-10
1.21512142552237e-10
1.1600643690383141e-10
1.0932445393606021e-10
1.0111158141107782e-10
9.099059517238877e-11
8.063246743911341e-11
1.44043934962156e-10
1.4460551320892082e-10
1.446966344905771e-10
1.4436740293748502e-10
1.436615967725927e-10
1.426147322226427e-10
1.4125252245191906e-10
1.395896214427843e-10
1.3762856892060257e-10
1.3535890357958326e-10
1.3275652419390714e-10
1.2978364218540133e-10
1.263903069997174e-10
1.225202053345161e-10
1.1812777440887696e-10
1.1322856741916509e-10
1.080345900196307e-10
1.0338742183312415e-10
1.0144713362847385e-10
1.4193949997174827e-10
1.4238753213700069e-10
1.4241187034536872e-10
1.420589811638972e-10
1.4137055943109995e-10
1.4038200800871583e-10
1.391213423027039e-10
1.3760855688525745e-10
1.3585552924396364e-10
1.3386664446327204e-10
1.3164055308634145e-10
1.2917392280101093e-10
1.2646891945504806e-10
1.2354778281126377e-10
1.204808087786347e-10
1.1743650247440852e-10
1.1475499056461401e-10
1.1294970012676546e-10
1.1158347960941274e-10
1.389953101701892e-10
1.3928351767037435e-10
1.3921275330777864e-10
1.388232419314004e-10
1.381526579067316e-10
1.3723492828048795e-10
1.3609947315475668e-10
1.3477103706656238e-10
1.3327027262182436e-10
1.316153207747048e-10
1.2982480065625075e-10
1.2792287684792738e-10
1.25947341303099e-10
1.2396155222954122e-10
1.2206916685988684e-10
1.2042129515548262e-10
1.1917918295410615e-10
1.1826673147923792e-10
1.1729859849574824e-10
1.3521588751281135e-10
1.3529767233005444e-10
1.3510253272204295e-10
1.3466094200538512e-10
1.3400377650024067e-10
1.331611879184953e-10
1.3216191286141044e-10
1.3103322897530089e-10
1.2980170728866214e-10
1.2849490006918404e-10
1.2714410018702052e-10
1.2578820863331953e-10
1.2447828728456623e-10
1.23280944519413e-10
1.2227476087388345e-10
1.2152657837490536e-10
1.210167277930685e-10
1.205634282060169e-10
1.1978823982929466e-10
1.306101633281623e-10
1.3043920775924862e-10
1.3009000797393085e-10
1.2957889189509348e-10
1.2892636390098977e-10
1.2815568196318157e-10
1.2729188153945106e-10
1.2636145385092465e-10
1.2539274407882463e-10
1.2441701722925205e-10
1.2346997633528913e-10
1.2259317802045605e-10
1.2183405080627686e-10
1.2124172046085726e-10
1.2085365771347845e-10
1.206656589351922e-10
1.205918169123573e-10
1.2043397059544495e-10
1.19916438378985e-10
1.251931016313258e-10
1.2472436725241929e-10
1.241919930309115e-10
1.235930205043902e-10
1.2293334894021632e-10
1.2222562000543244e-10
1.214875910783608e-10
1.2074117489146633e-10
1.200121034510691e-10
1.1932997859380444e-10
1.1872823714951943e-10
1.182431969465415e-10
1.1791077406371126e-10
1.1775877449040997e-10
1.1779235158113492e-10
1.1797346468465482e-10
1.182013105283666e-10
1.183127008417322e-10
1.1811888199997525e-10
1.1898703802167743e-10
1.181781605578117e-10
1.174354725729117e-10
1.1673104747784506e-10
1.1605146068910745e-10
1.1539463962946224e-10
1.147672744392697e-10
1.1418295497654898e-10
1.1366090591894057e-10
1.1322495705255277e-10
1.129021691041018e-10
1.1272029732368316e-10
1.1270305622645216e-10
1.1286216978503416e-10
1.1318622179797268e-10
1.136288267290525e-10
1.1410322252131055e-10
1.1449325553904747e-10
1.1468973291791371e-10
1.1202251013458683e-10
1.1083557710734678e-10
1.0985921390743181e-10
1.0903451879499812e-10
1.0832369064191427e-10
1.0770564636467024e-10
1.0717225043112896e-10
1.067253854013724e-10
1.0637470281690932e-10
1.0613563828929803e-10
1.0602711847795986e-10
1.0606831097082299e-10
1.0627383140745234e-10
1.0664725449033219e-10
1.071738561203664e-10
1.0781549674289793e-10
1.0851276512314943e-10
1.0920075419885077e-10
1.0984271385755777e-10
1.0433840476398914e-10
1.0274212153850686e-10
1.0151471381264921e-10
1.0056012351600735e-10
9.981086112292917e-11
9.922242615743011e-11
9.876825243898595e-11
9.843561463449203e-11
9.822238829043146e-11
9.813426013955308e-11
9.818188932183035e-11
9.837756170609147e-11
9.873109318489695e-11
9.924523868766804e-11
9.991180439308447e-11
1.0071099102454857e-10
1.0161784156939697e-10
1.0262003940889141e-10
1.0374966050461693e-10
9.598129329546319e-11
9.395360497745187e-11
9.246649473201681e-11
9.138038652170135e-11
9.059247162979875e-11
9.003030553950186e-11
8.964548285769268e-11
8.94082902270626e-11
8.930340609108602e-11
8.932634387710912e-11
8.948025331439814e-11
8.977279236646699e-11
9.021301532212515e-11
9.080866481591745e-11
9.156497367336976e-11
9.248706434038157e-11
9.358895731561408e-11
9.49123954824437e-11
9.655701267423317e-11
8.70038539983207e-11
8.453521915927833e-11
8.279193129272794e-11
8.15840313221961e-11
8.07671868095553e-11
8.023627079473442e-11
7.991789224947902e-11
7.976358766335703e-11
7.974419768568617e-11
7.984534375403414e-11
8.006381540079654e-11
8.04047244548793e-11
8.087946593794744e-11
8.150483919569364e-11
8.230420888330332e-11
8.331230449662907e-11
8.458605054547889e-11
8.62238571423394e-11
8.839389919893296e-11
7.746224531563198e-11
7.45600491941195e-11
7.258102054071866e-11
7.127659033469966e-11
7.045352967463093e-11
6.996902639641686e-11
6.97220715442817e-11
6.964468303571526e-11
6.969424362050364e-11
6.984748179306154e-11
7.00961360519152e-11
7.04442951663711e-11
7.090746701952782e-11
7.151366259990804e-11
7.230708630368748e-11
7.335554029240565e-11
7.476305415411767e-11
7.668937750955367e-11
7.937505181275897e-11
6.741223966774496e-11
6.410733169767993e-11
6.193702272449641e-11
6.058226653572115e-11
5.979162681922643e-11
5.937944088092645e-11
5.921590457572963e-11
5.921460668902595e-11
5.932148829367141e-11
5.950633970517734e-11
5.975729784273684e-11
6.007820111727767e-11
6.048878546978043e-11
6.10280005629425e-11
6.176103408192941e-11
6.279044973210475e-11
6.427211614262853e-11
6.643479973164471e-11
6.960040873841723e-11
5.690330526895315e-11
5.326165640067641e-11
5.097969619227135e-11
4.964910631170693e-11
4.894700099249885e-11
4.864163234973285e-11
4.857661864481207e-11
4.865191297461108e-11
4.88064658013217e-11
4.9006337361096177e-11
4.923772452157621e-11
4.9504212163608924e-11
4.98280075098034e-11
5.025561662596927e-11
5.086899799187972e-11
5.180346630163516e-11
5.326986852216974e-11
5.557886862629209e-11
5.915149643596355e-11
4.59711100810957e-11
4.2114470386186936e-11
3.985696629689916e-11
3.866008014192069e-11
3.811769996391975e-11
3.795373094320051e-11
3.799699555185884e-11
3.8144040172173485e-11
3.833414026254723e-11
3.8534047094824785e-11
3.872990348497758e-11
3.892445456800102e-11
3.9139005371377717e-11
3.9420871288458045e-11
3.985853021015643e-11
4.0607691657546666e-11
4.193232838923663e-11
4.4237342767978376e-11
4.808567282022003e-11
3.4618373431702586e-11
3.078631840888398e-11
2.877047664551091e-11
2.7858030761874617e-11
2.7541402727257186e-11
2.7535019580183674e-11
2.7677239337423028e-11
2.7876857527230153e-11
2.808251435070202e-11
2.8266503666525436e-11
2.8416837187499518e-11
2.8534722720492766e-11
2.8636665234751216e-11
2.8762160129068606e-11
2.8990121176312827e-11
2.947096983510618e-11
3.0484417970689073e-11
3.254925270598837e-11
3.641817789018798e-11
2.2842531404538413e-11
1.9463933793395014e-11
1.8069713103147058e-11
1.7567015544572672e-11
1.7492083997944957e-11
1.761252085659934e-11
1.7809327556217192e-11
1.8019184900159647e-11
1.8207708977264443e-11
1.8356441728491056e-11
1.845683235562628e-11
1.850839905082239e-11
1.8520335491203933e-11
1.8517416264763323e-11
1.855324893727959e-11
1.8738207141666846e-11
1.9301389655356928e-11
2.0719906717390715e-11
2.415493677941398e-11
1.0501015622119463e-11
8.855788131508695e-12
8.289326179285355e-12
8.173051061350307e-12
8.245025822111168e-12
8.390025421390984e-12
8.552073653607539e-12
8.702639289156649e-12
8.826607594124127e-12
8.915748294979049e-12
8.965772443514566e-12
8.975433752195572e-12
8.947283823673537e-12
8.890517054486581e-12
8.827535931570921e-12
8.808472299518174e-12
8.944930729440247e-12
9.505381276470793e-12
1.1158355119385022e-11

