# vtk DataFile Version 2.0
mesh vtk view
ASCII
DATASET UNSTRUCTURED_GRID
POINTS 861 double
0.0 0.0 0.0
395.0002852211546 -0.37726781140931176 0.0
395.0002852211547 200.37726781140927 0.0
0.0 200.0 0.0
9.82238842165195 -0.11803112833673557 0.0
19.68685044042505 -0.18580116520587067 0.0
29.564290018753 -0.23669108417262658 0.0
39.44612986016043 -0.2743091434571034 0.0
49.32962383358827 -0.30283140095695976 0.0
59.21345385978421 -0.32447751406101044 0.0
69.09695338119356 -0.3408564833542118 0.0
78.97976860149716 -0.3531451628931353 0.0
88.86172643287443 -0.36224983969700825 0.0
98.74276268337344 -0.36888127470147525 0.0
108.62288084607626 -0.37360330893911736 0.0
118.50212600591331 -0.3768648028153476 0.0
128.38056758465137 -0.379022663448922 0.0
138.25828760597201 -0.3803593349883848 0.0
148.1353726715389 -0.38109666943331394 0.0
158.01190854720582 -0.38140722989015535 0.0
167.8879766368093 -0.3814236469033569 0.0
177.76365183516435 -0.38124641460106373 0.0
187.6390013847122 -0.3809503888368995 0.0
197.51408445050632 -0.3805901819581756 0.0
207.38895219439988 -0.3802046111222737 0.0
217.26364818047776 -0.37982033431022305 0.0
227.1382089845043 -0.3794547924852522 0.0
237.01266491285318 -0.3791185637327109 0.0
246.88704076253697 -0.37881722385691385 0.0
256.7613565746372 -0.3785527970910938 0.0
266.63562834927455 -0.3783248701456755 0.0
276.5098687027812 -0.37813143286074213 0.0
286.38408745646024 -0.37796949939417585 0.0
296.2582921526126 -0.3778355553110216 0.0
306.13248849809236 -0.37772586824833465 0.0
316.0066807381261 -0.37763669308367925 0.0
325.8808719644286 -0.3775643967963193 0.0
335.7550643616519 -0.37750552359536477 0.0
345.6292593948771 -0.37745681773906453 0.0
355.5034579376827 -0.37741522080862383 0.0
365.3776603341565 -0.3773778653833201 0.0
375.2518663784136 -0.37734210954570935 0.0
385.1260751961277 -0.3773057385075927 0.0
395.00024662344384 9.660469004629674 0.0
395.00020649046746 19.698204653712175 0.0
395.00016574891083 29.73593771765319 0.0
395.0001263512165 39.77366759578889 0.0
395.00009021830647 49.8113943646955 0.0
395.0000589205639 59.84911847256581 0.0
395.0000336136174 69.88684051489683 0.0
395.00001507693634 79.9245610965805 0.0
395.000003788606 89.9622807653301 0.0
395.0 99.99999999964602 0.0
395.000003788606 110.03771923396194 0.0
395.00001507693634 120.0754389027116 0.0
395.0000336136174 130.11315948441418 0.0
395.00005892056396 140.15088152682813 0.0
395.00009021830647 150.18860563480555 0.0
395.0001263512166 160.22633240381907 0.0
395.00016574891083 170.26406228206176 0.0
395.00020649046746 180.30179534610085 0.0
395.0002466234439 190.3395309952747 0.0
385.126075196252 200.37730573850754 0.0
375.251866378662 200.37734210954568 0.0
365.3776603345291 200.3773778653833 0.0
355.50345793817945 200.3774152208086 0.0
345.629259395498 200.37745681773904 0.0
335.7550643623969 200.37750552359535 0.0
325.88087196529773 200.37756439679632 0.0
316.00668073911936 200.37763669308367 0.0
306.13248849920984 200.37772586824832 0.0
296.25829215385426 200.377835555311 0.0
286.384087457826 200.37796949939417 0.0
276.5098687042713 200.37813143286073 0.0
266.63562835088874 200.37832487014566 0.0
256.76135657637553 200.37855279709106 0.0
246.88704076433373 200.37881722385688 0.0
237.01266491463377 200.37911856373267 0.0
227.1382089862687 200.3794547924852 0.0
217.26364818222606 200.37982033431018 0.0
207.388952196132 200.38020461112222 0.0
197.51408445222242 200.38059018195813 0.0
187.63900138641213 200.38095038883685 0.0
177.7636518368481 200.38124641460104 0.0
167.8879766384769 200.38142364690336 0.0
158.01190854885752 200.3814072298902 0.0
148.1353726731745 200.38109666943342 0.0
138.25828760755422 200.38035933498855 0.0
128.3805675861473 200.3790226634492 0.0
118.50212600729999 200.37686480281573 0.0
108.62288084734163 200.37360330893964 0.0
98.74276268451746 200.36888127470215 0.0
88.86172643389706 200.36224983969782 0.0
78.97976860239832 200.35314516289412 0.0
69.0969533819733 200.34085648335534 0.0
59.21345386044247 200.3244775140623 0.0
49.32962383412641 200.30283140095833 0.0
39.44612986059319 200.27430914345857 0.0
29.56429001908169 200.2366910841741 0.0
19.68685044064522 200.18580116520724 0.0
9.822388421760316 200.11803112833772 0.0
0.0 190.0000000000711 0.0
0.0 180.0000000001421 0.0
0.0 170.0000000002132 0.0
0.0 160.0000000002842 0.0
0.0 150.0000000003553 0.0
0.0 140.0000000004263 0.0
0.0 130.0000000004974 0.0
0.0 120.0000000005163 0.0
0.0 110.0000000005163 0.0
0.0 100.0000000005163 0.0
0.0 90.00000000051627 0.0
0.0 80.00000000051628 0.0
0.0 70.00000000049741 0.0
0.0 60.00000000042633 0.0
0.0 50.0000000003553 0.0
0.0 40.00000000028422 0.0
0.0 30.00000000021316 0.0
0.0 20.00000000014211 0.0
0.0 10.00000000007105 0.0
9.8715138104712 9.922666047294381 0.0
9.881356971950616 19.9411938974513 0.0
9.886066981176086 29.953121767289844 0.0
9.888358288600402 39.96231584433188 0.0
9.889653348636028 49.970019557346355 0.0
9.890419868274645 59.97682015141211 0.0
9.890886422064314 69.98303833833425 0.0
9.891164786882811 79.98888004514423 0.0
9.89131319855397 89.99449393114429 0.0
9.891359848406744 100.00000000049486 0.0
9.89131319856486 110.00550606984542 0.0
9.891164786904588 120.01111995584544 0.0
9.890886422096974 130.01696166261914 0.0
9.890419868318185 140.0231798494048 0.0
9.889653348690441 150.02998044333475 0.0
9.888358288665676 160.03768415621326 0.0
9.886066981252187 170.0468782331196 0.0
9.881356972037505 180.05880610282207 0.0
9.871513810568718 190.07733395284293 0.0
19.733159675802344 9.850945704256201 0.0
19.756053986715433 19.883171637410253 0.0
19.76616013506265 29.90647787999066 0.0
19.771647878265792 39.92483993455332 0.0
19.77481430480404 49.94027092900468 0.0
19.77675027087513 59.95386388564608 0.0
19.777955499863875 69.96626406717242 0.0
19.778688617415785 79.97789311920143 0.0
19.779084770419733 89.98905654753833 0.0
19.779210178081282 100.0000000004733 0.0
19.779084770441774 110.01094345340837 0.0
19.778688617459835 120.02210688174534 0.0
19.77795549992995 130.03373593373954 0.0
19.776750270963216 140.046136115135 0.0
19.77481430491412 150.05972907164673 0.0
19.77164787839784 160.07516006596856 0.0
19.766160135216616 170.09352212040164 0.0
19.756053986891224 180.1168283628521 0.0
19.73315967599998 190.14905429587566 0.0
29.602241614114725 9.799792642817849 0.0
29.627334282039975 19.834559753298574 0.0
29.642092156621594 29.86482184554224 0.0
29.650677453555684 39.89034219057882 0.0
29.655959342088302 49.912459975674885 0.0
29.65930165645877 59.93222002758691 0.0
29.661436979650347 69.95037111752654 0.0
29.6627587674612 79.96745392039342 0.0
29.66348122449037 89.98388254367995 0.0
29.663711212215215 100.00000000045182 0.0
29.663481224523206 110.01611745722377 0.0
29.662758767526867 120.03254608051031 0.0
29.661436979748835 130.0496288833439 0.0
29.659301656590063 140.06777997315817 0.0
29.65595934225238 150.08754002494683 0.0
29.65067745375253 160.10965780991953 0.0
29.64209215685114 170.13517815483277 0.0
29.627334282302243 180.1654402469523 0.0
29.602241614409923 190.20020735730824 0.0
39.47645045651548 9.761466723282822 0.0
39.49987283625194 19.797172335554304 0.0
39.516126691332914 29.83052823074069 0.0
39.526889271755884 39.860716983712294 0.0
39.53397373429437 49.88793536606012 0.0
39.53867529302894 59.91281597864656 0.0
39.541772323265114 69.9359745636279 0.0
39.54372918076259 79.95793780650904 0.0
39.54481225700771 89.9791499453669 0.0
39.54515912890401 100.00000000043029 0.0
39.54481225705093 110.02085005549374 0.0
39.54372918084896 120.04206219435167 0.0
39.54177232339468 130.06402543720083 0.0
39.53867529320169 140.0871840220625 0.0
39.53397373451027 150.11206463453172 0.0
39.52688927201492 160.1392830167623 0.0
39.51612669163511 170.16947176961662 0.0
39.49987283659734 180.20282766468492 0.0
39.476450456904374 190.23853327683725 0.0
49.35361160867109 9.732687345839839 0.0
49.374102614032786 19.768652669996154 0.0
49.38999215335001 29.803578593640424 0.0
49.40161134641381 39.83655574175657 0.0
49.409858076822886 49.86736443293188 0.0
49.41561210244905 59.896212176037 0.0
49.41953671020915 69.92348829067626 0.0
49.42207409586341 79.94961289856255 0.0
49.42349846045134 89.97498986599815 0.0
49.4239577058872 100.00000000040872 0.0
49.423498460505066 110.02501013481924 0.0
49.422074095970814 120.05038710225502 0.0
49.41953671037026 130.07651171011068 0.0
49.415612102663815 140.1037878246358 0.0
49.409858077091314 150.13263556762996 0.0
49.40161134673594 160.1634442586942 0.0
49.38999215372587 170.1964214066992 0.0
49.374102614462494 180.2313473302312 0.0
49.35361160915486 190.26731265427424 0.0
59.23229571775266 9.710982437345978 0.0
59.24965326997717 19.74708663336711 0.0
59.26423581776389 29.78285175565248 0.0
59.27574361485036 39.81753662718017 0.0
59.28445103594802 49.85078332828587 0.0
59.29083123125329 59.882570342552114 0.0
59.2953373360672 69.91308362179085 0.0
59.29832120460346 79.94260959129699 0.0
59.30002126398625 89.97147107790622 0.0
59.30057331891863 100.0000000003871 0.0
59.300021264051956 110.02852892286792 0.0
59.29832120473482 120.0573904094772 0.0
59.295337336264225 130.08691637895416 0.0
59.29083123151603 140.11742965808446 0.0
59.28445103627646 150.14921667224579 0.0
59.275743615244515 160.18246337324658 0.0
59.26423581822383 170.21714824466932 0.0
59.24965327050301 180.25291336684833 0.0
59.23229571834462 190.28901756276207 0.0
69.11163360002708 9.694683980294252 0.0
69.12604330910695 19.730907182131354 0.0
69.13893284331782 29.76717821623841 0.0
69.14972968998742 39.80293853937264 0.0
69.15834067674467 49.83783653722281 0.0
69.16492656689215 59.87174636478888 0.0
69.16973188754878 69.90472120277501 0.0
69.17298789640904 79.93692906192783 0.0
69.1748703279871 89.96860136668926 0.0
69.17548594823677 100.00000000036535 0.0
69.17487032806488 110.03139863404154 0.0
69.17298789656466 120.06307093880304 0.0
69.1697318877822 130.09527879792807 0.0
69.16492656720338 140.12825363581126 0.0
69.15834067713376 150.16216346327866 0.0
[...]
POINT_DATA 861
SCALARS CellEntityIds float 1
LOOKUP_TABLE default
0.0
0.009964891831447184
0.009964891831447099
0.0
0.00042382972050872806
0.0007236710356467099
0.0009854703565116841
0.0012283896847549362
0.001461967302239163
0.0016910088728364536
0.001918346200216671
0.0021456860107989745
0.0023740505011092643
0.0026040185186886884
0.002835876039557586
0.0030697156160739156
0.003305504667022537
0.0035431331711754687
0.0037824470547896953
0.0040232713338595955
0.004265425810118978
0.004508735338893786
0.004753036163806207
0.004998179440148089
0.00524403279076665
0.005490480526065825
0.005737422995948966
0.00598477541503776
0.006232466405344008
0.00648043642666661
0.006728636209485063
0.006977025264115874
0.0072255705101735065
0.007474245049389737
0.00772302709057401
0.007971899026372794
0.008220846656416047
0.008469858549779961
0.008718925541422867
0.008968040363312465
0.009217197423997481
0.009466392773175713
0.009715624297686609
0.009959605885429339
0.009954885379875643
0.009950729376614623
0.009947134644622732
0.009944097828547143
0.00994161615320939
0.009939687591630565
0.009938310805616362
0.009937485000302991
0.00993720977230258
0.009937485000302946
0.009938310805616274
0.009939687591630424
0.009941616153209218
0.009944097828546956
0.009947134644622553
0.009950729376614453
0.0099548853798755
0.009959605885429228
0.00971562429768966
0.009466392773181894
0.009217197424006798
0.008968040363324914
0.008718925541438454
0.008469858549798677
0.008220846656437885
0.007971899026397758
0.0077230270906021034
0.007474245049420953
0.0072255705102078375
0.0069770252641533186
0.006728636209525613
0.0064804364267102505
0.0062324664053890755
0.0059847754150823725
0.00573742299599312
0.005490480526109506
0.005244032790809833
0.004998179440190762
0.004753036163848345
0.004508735338935366
0.004265425810159981
0.004023271333900006
0.003782447054829479
0.0035431331712137
0.0033055046670584128
0.003069715616106911
0.002835876039587447
0.00260401851871546
0.0023740505011330135
0.002145686010819779
0.0019183462002346275
0.0016910088728516667
0.0014619673022517707
0.0012283896847653892
0.0009854703565201175
0.0007236710356530797
0.00042382972051285047
0.0
0.0
0.0
0.0
0.0
0.0
0.0
0.0
0.0
0.0
0.0
0.0
0.0
0.0
0.0
0.0
0.0
0.0
0.0
0.00029804500929811456
0.0002631715809855311
0.0002448533447978258
0.00023418077825865642
0.00022725779937114826
0.00022260335308516154
0.00021946139023788772
0.00021742975609004983
0.000216285717310558
0.00021591599524708923
0.00021628571731087452
0.0002174297560906929
0.00021946139023887112
0.00022260335308647657
0.00022725779937281533
0.0002341807782607117
0.0002448533448003408
0.0002631715809886216
0.0002980450093021277
0.0006074584445566385
0.0005375599687097838
0.0005005334955026646
0.0004777875230220723
0.0004630192077631434
0.0004530713088113361
0.0004463649207567584
0.00044203247926635124
0.0004395945663234055
0.0004388069552598632
0.0004395945663240631
0.00044203247926768633
0.0004463649207587996
0.00045307130881406865
0.0004630192077666094
0.00047778752302634323
0.0005005334955078482
0.0005375599687160274
0.0006074584445637579
0.0008850137699087522
0.0008103554514172678
0.000760365156955546
0.0007276618506666484
0.0007055481365702457
0.0006903879217352013
0.0006800651890718651
0.0006733613375250819
0.0006695781868602238
0.0006683544457511811
0.0006695781868612242
0.0006733613375271117
0.0006800651890749621
0.0006903879217393374
0.0007055481365754676
0.0007276618506730177
0.0007603651569631159
0.0008103554514259444
0.0008850137699179111
0.0011434309026810635
0.001072604288820785
0.0010189474755089778
0.0009801807424081367
0.0009526026409723819
0.000933085559907999
0.0009195476630077351
0.0009106568527568866
0.0009056077686693798
0.0009039698299492537
0.0009056077686707115
0.0009106568527595822
0.0009195476630118342
0.0009330855599134481
0.0009526026409792045
0.0009801807424163402
0.0010189474755184932
0.0010726042888313202
0.0011434309026919765
0.0013901783658994704
0.0013261899864439892
0.0012736556178035458
0.0012328277321015878
0.0012021308165474716
0.0011796118919184095
0.0011636157338825361
0.001152951394428266
0.0011468410316281346
0.0011448506230285133
0.001146841031629789
0.001152951394431608
0.0011636157338875944
0.001179611891925096
0.0012021308165557716
0.0012328277321114376
0.0012736556178147762
0.0013261899864562444
0.0013901783659121928
0.0016303094485324242
0.0015737044127123508
0.0015246442936450956
0.001484394563041004
0.0014527044268625633
0.0014286239118215464
0.0014110892836305207
0.0013992025978578012
0.0013923220757160423
0.001390069930235667
0.0013923220757180407
0.0013992025978618254
0.0014110892836365805
0.001428623911829525
0.0014527044268723985
0.0014843945630525746
0.0015246442936581819
0.001573704412726594
0.0016303094485473654
0.0018669398950321133
0.0018174080791983516
0.001772774417457033
0.0017346541151845333
0.0017035141713477207
0.001679119870907883
0.0016609393652020556
0.001648411437682567
0.0016410842076326117
0.001638673818720955
0.0016410842076349382
0.0016484114376872402
0.001660939365209067
0.0016791198709170836
0.0017035141713590124
0.001734654115197762
0.0017727744174719584
0.0018174080792146457
0.0018669398950493972
0.002102051006676435
0.0020589560954454625
0.0020189823229880294
0.0019837882379662875
0.001954195578046356
0.0019304225975681293
0.0019123438775481769
0.0018996994982095386
0.0018922322317179291
0.0018897640641781703
0.0018922322317205683
0.0018996994982148254
0.0019123438775560863
0.0019304225975784897
0.001954195578059052
0.00198378823798114
0.0020189823230048055
0.0020589560954638684
0.0021020510066961594
0.002336894592222741
0.0022995021335763203
0.0022640493333435153
0.002232102702160072
0.0022046274354682502
0.0021821034664037614
0.002164683843163263
0.002152343655518733
0.002144993614800577
0.002142553847717009
0.002144993614803515
0.002152343655524607
0.002164683843172032
0.0021821034664152466
0.002204627435482321
0.00223210270217655
0.0022640493333621766
0.0022995021335969084
0.002336894592244999
0.002572244696436904
0.0025398193472170026
0.002508563658416488
0.002479895437361283
0.00245480389689648
0.002433900804040788
0.002417512422743422
0.0024057789743143444
0.00239873981823861
0.002396394750899736
0.002398739818241836
0.002405778974320786
0.002417512422753028
0.0024339008040533752
0.002454803896911918
0.0024798954373793976
0.0025085636584370767
0.002539819347239841
0.00257224469646178
0.0028085550762726908
0.0027804047941154836
0.0027529397395243257
0.002727410304019443
0.0027047637344983803
0.002685659297477712
0.0026705176936695748
0.002659583664783389
0.002652985359759464
0.0026507805717114275
0.00265298535976297
0.0026595836647903886
0.0026705176936800057
0.0026856592974913965
0.002704763734515195
0.0027274103040392235
0.0027529397395468854
0.0027804047941406324
0.002808555076300248
0.0030460638001660535
0.003021559122014823
0.0029974530991671014
0.002974828573430767
0.0029545562659464087
0.002937290058533298
0.002923489550942957
0.0029134565215017056
0.002907373499643366
0.0029053360115557404
0.002907373499647152
0.0029134565215092516
0.002923489550954203
0.002937290058548084
0.002954556265964612
0.0029748285734522376
0.0029974530991916763
0.0030215591220423286
0.003046063800196348
0.0032848648082202526
0.003263445808824315
0.003242274628269319
0.003222275607826105
0.003204227053895613
0.003188745822777941
0.003176293149724418
0.0031671931622624504
0.0031616558143095458
0.0031597976345559766
0.0031616558143135716
0.003167193162270483
0.0031762931497363936
0.0031887458227937136
0.003204227053915072
0.0032222756078491128
0.0032422746282957274
0.0032634458088539823
0.0032848648082530606
0.003524957839960163
0.0035061345819560894
0.0034874995718526766
0.0034698320963561843
0.0034538133590357525
0.003440005740535639
0.003428848463372476
0.0034206641444992658
0.0034156705262709053
0.003413992459937053
0.0034156705262751177
0.003420664144507667
0.0034288484633850096
0.0034400057405521785
0.003453813359056194
0.0034698320963804058
0.0034874995718805536
0.003506134581987498
0.0035249578399950063
0.003766283518356581
0.0037496329571954814
0.0037331703855583574
0.003717545323038559
0.003703343880164191
0.003691065904291025
0.003681114760064137
0.0036737961873001533
0.0036693223385425976
0.0036678174418834546
0.0036693223385469136
0.003673796187308766
0.00368111476007699
0.0036910659043080077
0.003703343880185207
0.0037175453230635152
0.0037331703855871486
0.0037496329572279967
0.0037662835183927437
0.004008747945004664
0.003993908915855898
0.003979294046285558
0.0039654387838035186
0.00395284005561047
0.003941933239528319
0.00393307886224158
0.00392655675456804
0.0039225650409556315
0.003921221464676699
0.0039225650409599605
0.003926556754576677
0.00393307886225447
0.003941933239545371
0.003952840055631615
0.003965438783828667
0.003979294046314624
0.003993908915888791
0.004008747945041328
0.004252239749379908
0.004238906999139846
0.004225854788831231
0.004213519760456328
0.004202317680804765
0.004192621399688123
0.004184746295308976
0.004178941795881813
0.0041753872491033855
0.004174190427105085
0.00417538724910772
0.004178941795890471
0.004184746295321922
0.004192621399705271
0.004202317680826049
0.0042135197604816765
0.0042258547888605795
0.004238906999173116
0.004252239749417058
0.004496641666733286
0.00448455953373622
0.004472823249222913
0.004461784994213365
0.004451788349634486
0.004443147911031762
0.004436134658576513
0.004430966251713432
0.004427801145854897
0.0044267353915140185
0.004427801145859243
0.004430966251722133
0.004436134658589523
0.0044431479110490085
0.004451788349655924
0.0044617849942389255
0.004472823249252549
0.0044845595337698755
0.004496641666770907
0.00474183814891283
0.0047307942790146
0.004720162870133626
0.004710224783243314
0.0047012605815617906
0.004693532148998522
0.004687268719188348
0.004682656877308539
0.004679833867944737
0.004678883479933741
0.004679833867949111
0.00468265687731728
0.004687268719201426
0.00469353214901588
0.004701260581583382
0.0047102247832691
0.004720162870163553
0.0047307942790486245
0.004741838148950916
0.004987720117522516
0.0049775394669224335
0.004967834266177598
0.004958825852391367
0.0049507406455720155
0.0049437939047669325
0.004938176846825036
0.004934046954073585
0.004931521105138563
0.0049306710897983365
0.004931521105142957
0.004934046954082375
0.004938176846838192
0.0049437939047844125
0.004950740645593776
0.0049588258524173754
0.0049678342662078144
0.0049775394669568235
0.004987720117561047
0.00523418768401446
0.00522472696376591
0.005215798096929694
0.0052075733038066795
0.005200233141673299
0.005193952391577075
0.005188888489424664
0.005185172501721729
0.005182902484993314
0.005182138991320476
0.005182902484997733
0.005185172501730574
0.005188888489437899
0.005193952391594679
0.00520023314169524
0.005207573303832916
0.005215798096960198
0.005224726963800664
0.00523418768405343
0.005481151450183313
0.0054722940990300575
0.005464016867128269
0.005456451899033773
0.005449741406330241
0.005444025587115604
0.00543943245083222
0.005436069659339682
0.00543401835938746
0.005433328906220446
0.005434018359391909
0.005436069659348588
0.0054394324508455485
0.005444025587133335
0.005449741406352355
0.005456451899060242
0.0054640168671590715
0.005472294099065161
0.005481151450222707
0.005728532843502261
0.005720184566290964
0.005712455969428157
0.005705446865847577
0.005699267797434457
0.005694029833724435
0.00568983577824759
0.005686772959064479
0.005684907665817638
0.005684281223991654
0.005684907665822122
0.005686772959073444
0.005689835778261022
0.005694029833742305
0.005699267797456753
0.005705446865874276
0.005712455969459253
0.00572018456632642
0.0057285328435420675
0.0059762638210775825
0.005968348694775678
0.005961084203396983
0.005954544374101519
0.0059488138999044945
0.005943979633891054
0.005940123105190793
0.005937314267428646
0.005935606594440655
0.005935033571755363
0.005935606594445171
0.005937314267437677
0.005940123105204324
0.005943979633909069
0.005948813899926978
0.00595454437412846
0.005961084203428356
0.005968348694811478
0.005976263821117788
0.006224286184356343
0.0062167433094463724
0.006209873941742884
0.0062037317858147974
0.006198380679937554
0.006193887589819883
0.0061903163269322655
0.006187722214638447
0.006186147845068409
0.00618562000956633
0.006186147845072958
0.006187722214647548
0.006190316326945895
0.006193887589838042
0.006198380679960224
0.00620373178584197
0.0062098739417745475
0.00621674330948251
0.006224286184396953
0.006472550677364559
0.006465331336658499
0.006458801067356154
0.006452997754912759
0.00644796860587038
0.006443764445172959
0.006440434511321887
0.006438021970564907
0.006436560304482166
0.0064360706717448155
0.0064365603044865575
0.0064380219705736964
0.006440434511335059
0.006443764445190502
0.006447968605892293
0.006452997754939035
0.006458801067386788
0.006465331336693476
0.006472550677403873
0.006721015989117418
0.006714081266853193
0.006707844769314389
0.006702332229879014
0.006697577746535985
0.00669361919514729
0.006690493969524026
0.006688235258281324
0.006686869013072353
0.006686411715690371
0.006686869013076418
0.006688235258289473
0.006690493969536242
0.006693619195163566
0.006697577746556315
0.006702332229903398
0.006707844769342837
0.0067140812668856804
0.0067210159891539405
0.0069696477420525
0.0069629665518373685
0.006956987259772127
0.006951726396414365
0.006947207853368828
0.0069434592381650735
0.0069405084289266335
0.006938380522170721
0.006937095321379788
0.0069366654730474726
0.006937095321383548
0.006938380522178236
0.0069405084289378876
0.006943459238180075
0.006947207853387575
0.0069517263964368635
0.006956987259798376
0.006962966551867352
0.006969647742086226
0.007218417519827693
0.007211964989190602
0.007206213454374362
0.007201172585526705
0.007196858429627794
0.007193290548604218
0.007190489264925574
0.007188473188681756
0.007187257162431906
0.007186850724880778
0.007187257162435348
0.007188473188688627
0.007190489264935881
0.007193290548617956
0.007196858429644973
0.007201172585547307
0.007206213454398412
0.0072119649892180785
0.007218417519858607
0.007467301967237194
0.00746105812808788
0.007455510644761318
0.007450664164102603
0.007446528788397835
0.007443117855193905
0.007440445759851361
0.007438525974496362
0.007437369385759729
0.007436983043652874
0.007437369385762857
0.007438525974502595
0.0074404457598607095
0.007443117855206373
0.007446528788413426
0.007450664164121322
0.0074555106447831655
0.007461058128112857
0.007467301967265287
0.0077162819804774225
0.007710230717679446
0.007704868181510963
0.007700195419004815
0.007696218100055451
0.007692944813976664
0.007690385366438172
0.007688549209910593
0.007687444114543856
0.007687075161231395
0.007687444114546664
0.007688549209916189
0.007690385366446574
0.0076929448139878695
0.007696218100069466
0.007700195419021641
0.00770486818153061
0.007710230717701905
0.007716281980502691
0.007965341996076682
0.007959470209796819
0.007954277178422503
0.00794976144138727
0.007945925429337723
0.007942774168181638
0.007940313960345951
0.00793855115527215
0.007937491099267063
0.007937137334733236
0.007937491099269544
0.007938551155277114
0.007940313960353402
0.00794277416819158
0.007945925429350163
0.007949761441402218
0.007954277178439956
0.007959470209816768
0.007965341996099131
0.008214469380378049
0.00820876632109991
0.008203730243550847
0.008199358014742262
0.008195649761911552
0.008192607890128416
0.00819023607172767
0.008188538295928924
0.008187518050223325
0.00818717769145451
0.008187518050225492
0.008188538295933254
0.008190236071734172
0.0081926078901371
0.008195649761922427
0.00819935801475532
0.008203730243566095
0.00820876632111735
0.008214469380397686
0.008463653917626272
0.00845811065488907
0.008453221238207851
0.008448981507949592
0.008445390020450068
0.008442447302598128
0.008440155090011352
0.008438515606760637
0.008437530937783289
0.008437202541010262
0.008437530937785145
0.008438515606764339
0.008440155090016912
0.008442447302605547
0.008445390020459369
0.008448981507960767
0.008453221238220903
0.008458110654904004
0.00846365391764309
0.008712887392593302
0.008707496378724902
0.008702745061915568
0.008698628773469674
0.008695145070954608
0.00869229317913077
0.008690073439090354
0.008688486781264932
0.008687534253865816
0.008687216647600951
0.008687534253867354
0.008688486781268006
0.008690073439094963
0.00869229317913694
0.00869514507096233
0.00869862877347895
0.008702745061926415
0.00870749637873732
0.008712887392607293
0.008962163262001641
0.00895691794980288
0.008952297459656519
0.008948297051809192
0.008944913721714636
0.008942145824162565
0.00893999272172362
0.008938454422448491
0.008937531231028832
0.008937223458565296
0.008937531231030058
0.00893845442245093
0.008939992721727286
0.008942145824167462
0.00894491372172078
0.008948297051816574
0.008952297459665167
0.00895691794981279
0.008962163262012818
0.009211476404723792
0.009206370876278458
0.00920187485143919
0.009197983888451083
0.009194694718956627
0.009192005133042894
0.009189913831302179
0.009188420193528477
0.009187524017651093
0.009187225287939853
0.009187524017651993
0.009188420193530285
0.009189913831304899
0.009192005133046521
0.00919469471896118
0.009197983888456577
0.009201874851445628
0.009206370876285853
0.00921147640473214
0.00946082292738746
0.00945585150980478
0.009451474204886907
0.009447687077506473
0.009444486737869275
0.00944187062503229
0.009439837025279103
0.009438384926375085
0.009437513810239629
0.009437223457229355
0.009437513810240213
0.009438384926376256
0.009439837025280867
0.009441870625034652
0.009444486737872248
0.00944768707751008
0.009451474204891142
0.009455851509809664
0.009460822927392979
0.009710199980980255
0.009705356948123104
0.009701093016759645
0.009697404626787084
0.009694288341934792
0.0096917414256898
0.009689761948440012
0.009688348687056756
0.009687500949596644
0.009687218402649973
0.009687500949596911
0.009688348687057305
0.009689761948440819
0.009691741425690896
0.00969428834193618
0.009697404626788801
0.00970109301676168
0.009705356948125476
0.009710199980982957
