# vtk DataFile Version 2.0
mesh vtk view
ASCII
DATASET UNSTRUCTURED_GRID
POINTS 861 double
0.0 0.0 0.0
350.00285221154616 -3.772678114093118 0.0
350.00285221154655 203.77267811409266 0.0
0.0 200.0 0.0
8.22388421687189 -1.180311283367356 0.0
16.86850440497934 -1.8580116520587069 0.0
25.642900188605925 -2.366910841726266 0.0
34.461298602987505 -2.743091434571034 0.0
43.29623833758558 -3.0283140095695975 0.0
52.13453859999925 -3.2447751406101046 0.0
60.96953381455987 -3.4085648335421186 0.0
69.79768601806285 -3.531451628931354 0.0
78.61726433230263 -3.622498396970083 0.0
87.42762683775973 -3.688812747014753 0.0
96.22880846525447 -3.736033089391174 0.0
105.02126006409213 -3.7686480281534767 0.0
113.80567585182983 -3.7902266344892204 0.0
122.58287606518391 -3.803593349883849 0.0
131.35372672099976 -3.8109666943331395 0.0
140.1190854778165 -3.8140722989015536 0.0
148.8797663739978 -3.814236469033569 0.0
157.63651835769582 -3.812464146010638 0.0
166.3900138533223 -3.8095038883689956 0.0
175.140844511411 -3.805901819581756 0.0
183.88952195049322 -3.802046111222737 0.0
192.63648181141957 -3.7982033431022306 0.0
201.38208985183175 -3.7945479248525227 0.0
210.12664913546834 -3.7911856373271093 0.0
218.8704076324537 -3.788172238569139 0.0
227.61356575326292 -3.785527970910938 0.0
236.35628349914467 -3.7832487014567553 0.0
245.098687033719 -3.781314328607422 0.0
253.84087457001627 -3.779694993941759 0.0
262.5829215310485 -3.778355553110216 0.0
271.3248849853533 -3.7772586824833465 0.0
280.06680738519833 -3.776366930836793 0.0
288.8087196477312 -3.7756439679631932 0.0
297.55064361947245 -3.775055235953648 0.0
306.2925939512323 -3.7745681773906457 0.0
315.03457937879625 -3.7741522080862384 0.0
323.7766033430414 -3.773778653833201 0.0
332.5186637851204 -3.7734210954570937 0.0
341.2607519617693 -3.7730573850759277 0.0
350.0024662344386 6.6046900466611405 0.0
350.00206490467434 16.982046537813325 0.0
350.001657489108 27.359377177610472 0.0
350.00126351216534 37.7366759594346 0.0
350.00090218306445 48.11394364896771 0.0
350.0005892056393 58.49118472813776 0.0
350.00033613617416 68.86840515170026 0.0
350.0001507693635 79.24561096868418 0.0
350.0000378860602 89.6228076563274 0.0
350.0 99.99999999963387 0.0
350.0000378860602 110.37719234294032 0.0
350.00015076936353 120.7543890305836 0.0
350.00033613617427 131.13159484758705 0.0
350.00058920563947 141.5088152712353 0.0
350.0009021830647 151.8860563505161 0.0
350.0012635121655 162.26332404015972 0.0
350.0016574891083 172.64062282209443 0.0
350.0020649046746 183.01795346199296 0.0
350.0024662344389 193.39530995323963 0.0
341.2607519618797 203.77305738507553 0.0
332.51866378534066 203.77342109545674 0.0
323.77660334337173 203.7737786538329 0.0
315.0345793792364 203.77415220808598 0.0
306.29259395178224 203.77456817739042 0.0
297.5506436201324 203.77505523595346 0.0
288.808719648501 203.77564396796302 0.0
280.06680738607804 203.77636693083662 0.0
271.32488498634297 203.77725868248316 0.0
262.582921532148 203.77835555311003 0.0
253.84087457122575 203.77969499394155 0.0
245.0986870350385 203.78131432860718 0.0
236.35628350057402 203.78324870145647 0.0
227.61356575480224 203.78552797091058 0.0
218.87040763404482 203.7881722385687 0.0
210.12664913704523 203.79118563732666 0.0
201.38208985339438 203.79454792485203 0.0
192.6364818129681 203.7982033431017 0.0
183.88952195202768 203.8020461112222 0.0
175.14084451293152 203.80590181958127 0.0
166.3900138548289 203.8095038883686 0.0
157.63651835918853 203.8124641460104 0.0
148.87976637547675 203.8142364690336 0.0
140.11908547928192 203.814072298902 0.0
131.35372672245165 203.81096669433418 0.0
122.58287606658928 203.80359334988566 0.0
113.80567585315949 203.790226634492 0.0
105.02126006532563 203.76864802815743 0.0
96.22880846638103 203.73603308939644 0.0
87.42762683877918 203.68881274702144 0.0
78.61726433321475 203.62249839697833 0.0
69.7976860188674 203.5314516289412 0.0
60.96953381525657 203.40856483355353 0.0
52.13453860058773 203.24477514062286 0.0
43.29623833806667 203.02831400958337 0.0
34.46129860337397 202.7430914345857 0.0
25.642900188898444 202.36691084174117 0.0
16.868504405173233 201.85801165207232 0.0
8.223884216963704 201.18031128337716 0.0
0.0 190.0000000000711 0.0
0.0 180.0000000001421 0.0
0.0 170.0000000002132 0.0
0.0 160.0000000002842 0.0
0.0 150.0000000003553 0.0
0.0 140.0000000004263 0.0
0.0 130.0000000004974 0.0
0.0 120.0000000005163 0.0
0.0 110.0000000005163 0.0
0.0 100.0000000005163 0.0
0.0 90.00000000051627 0.0
0.0 80.00000000051628 0.0
0.0 70.00000000049741 0.0
0.0 60.00000000042633 0.0
0.0 50.0000000003553 0.0
0.0 40.00000000028422 0.0
0.0 30.00000000021316 0.0
0.0 20.00000000014211 0.0
0.0 10.00000000007105 0.0
8.715138105014786 9.226660472329371 0.0
8.813569719759343 19.411938973283238 0.0
8.860669811964454 29.5312176710549 0.0
8.883582886158067 39.62315844086344 0.0
8.896533486464707 49.700195570396026 0.0
8.904198682801283 59.76820151044212 0.0
8.908864220648388 69.83038337904627 0.0
8.911647868783744 79.88880044698384 0.0
8.913131985445752 89.94493930698827 0.0
8.913598483923879 100.00000000049732 0.0
8.91313198545546 110.05506069400644 0.0
8.911647868803136 120.11119955401115 0.0
8.908864220677426 130.16961662191284 0.0
8.904198682839944 140.23179849038053 0.0
8.896533486512908 150.299804430291 0.0
8.883582886215676 160.37684155968807 0.0
8.86066981203119 170.46878232936172 0.0
8.813569719834783 180.58806102699856 0.0
8.715138105097317 190.77333952781828 0.0
17.331596758651898 8.509457041972697 0.0
17.560539867682348 18.831716372921992 0.0
17.661601351054184 29.064778798137997 0.0
17.71647878298525 39.24839934318039 0.0
17.748143048267263 49.40270928710969 0.0
17.76750270887785 59.53863885293955 0.0
17.779554998664842 69.66264066760809 0.0
17.78688617408352 79.77893118774423 0.0
17.79084770402273 89.89056547112045 0.0
17.792101780537777 100.00000000047797 0.0
17.79084770404226 110.10943452983577 0.0
17.786886174122507 120.22106881321268 0.0
17.779554998723214 130.33735933331474 0.0
17.76750270895556 140.46136114785247 0.0
17.748143048364135 150.59729071355315 0.0
17.71647878310098 160.75160065735378 0.0
17.661601351188303 170.9352212022679 0.0
17.56053986783404 181.1682836273555 0.0
17.331596758821135 191.49054295817444 0.0
26.02241614207352 7.997926427614274 0.0
26.27334282117627 18.34559753185453 0.0
26.420921566842594 28.648218453728784 0.0
26.506774536033937 38.90342190353803 0.0
26.559593421210323 49.124599753941936 0.0
26.593016564765282 59.32220027250592 0.0
26.614369796531427 69.50371117132939 0.0
26.627587674490115 79.67453919985218 0.0
26.63481224463215 89.83882543272856 0.0
26.63711212173087 100.00000000045837 0.0
26.63481224466109 110.16117456818854 0.0
26.62758767454792 120.32546080106579 0.0
26.614369796617964 130.49628882955622 0.0
26.593016564880497 140.6777997282543 0.0
26.55959342135398 150.87540024669542 0.0
26.50677453620572 161.09657809697677 0.0
26.420921567042072 171.35178154666363 0.0
26.273342821403414 181.65440246841405 0.0
26.02241614233046 192.00207357252805 0.0
34.764504566340925 7.614667232289124 0.0
34.99872836350844 17.971723354461147 0.0
35.161266914121235 28.305282305788253 0.0
35.26889271815362 38.60716983497549 0.0
35.339737343341525 48.87935365792452 0.0
35.3867529304902 59.128159783260266 0.0
35.41772323265487 69.35974563252323 0.0
35.4372918074325 79.57937806119625 0.0
35.448122569686795 89.7914994497899 0.0
35.4515912884527 100.00000000043836 0.0
35.448122569724724 110.2085005510872 0.0
35.437291807508224 120.42062193968188 0.0
35.41772323276827 130.64025436832392 0.0
35.38675293064128 140.87184021746697 0.0
35.339737343530054 151.12064634268566 0.0
35.268892718379426 161.39283016551775 0.0
35.16126691438432 171.69471769458778 0.0
34.99872836380962 182.02827664579596 0.0
34.76450456668273 192.3853327678468 0.0
43.53611608816862 7.326873457884393 0.0
43.74102614154057 17.686526698928905 0.0
43.89992153446778 28.0357859348604 0.0
44.01611346486078 38.36555741552076 0.0
44.09858076870647 48.673644326772376 0.0
44.15612102472319 58.962121757322706 0.0
44.19536710207929 69.23488290318711 0.0
44.22074095837677 79.49612898191957 0.0
44.23498460401106 89.74989865629412 0.0
44.239577058124574 100.00000000041791 0.0
44.2349846040581 110.250101344542 0.0
44.2207409584707 120.50387101891769 0.0
44.195367102220004 130.76511709762042 0.0
44.15612102491074 141.03787824337005 0.0
44.09858076894079 151.3263556738091 0.0
44.01611346514194 161.6344425849493 0.0
43.8999215347962 171.9642140654978 0.0
43.741026141917445 182.31347330131555 0.0
43.53611608859619 192.67312654224455 0.0
52.32295717938419 7.109824372970908 0.0
52.49653270132949 17.47086633268768 0.0
52.642358178897 27.82851755505582 0.0
52.75743614946206 38.17536626985923 0.0
52.8445103601389 48.50783328044272 0.0
52.90831231289184 58.8257034226317 0.0
52.9533733607312 69.13083621451308 0.0
52.98321204579402 79.42609590945221 0.0
53.000212639322385 89.71471077556653 0.0
53.005733188346376 100.00000000039704 0.0
53.00021263937985 110.28528922522779 0.0
52.983212045908815 120.57390409134307 0.0
52.953373360903264 130.86916378625372 0.0
52.9083123131214 141.17429657802566 0.0
52.844510360426014 151.49216672010894 0.0
52.75743614980699 161.8246337305866 0.0
52.64235817930043 172.17148244528386 0.0
52.49653270179268 182.52913366754382 0.0
52.32295717990903 192.8901756271509 0.0
61.11633600254032 6.946839802478758 0.0
61.26043309298375 17.309071820379337 0.0
61.389328434737216 27.67178216099009 0.0
61.497296901078414 38.02938539188657 0.0
61.58340676829572 48.37836536994225 0.0
61.649265669415456 58.71746364515716 0.0
61.69731887562686 69.04721202453506 0.0
61.72987896387438 79.36929061594873 0.0
61.748703279299875 89.68601366358891 0.0
61.75485948144171 100.00000000037568 0.0
61.748703279367916 110.31398633716285 0.0
61.72987896401044 120.63070938480388 0.0
61.69731887583088 130.95278797619025 0.0
61.64926566968772 141.28253635546378 0.0
61.58340676863651 151.62163463057882 0.0
61.497296901488156 161.97061460853436 0.0
[...]
POINT_DATA 861
SCALARS CellEntityIds float 1
LOOKUP_TABLE default
0.0
0.009964891831447184
0.009964891831447099
0.0
0.00042382972050872806
0.0007236710356467099
0.0009854703565116841
0.0012283896847549362
0.001461967302239163
0.0016910088728364536
0.001918346200216671
0.0021456860107989745
0.0023740505011092643
0.0026040185186886884
0.002835876039557586
0.0030697156160739156
0.003305504667022537
0.0035431331711754687
0.0037824470547896953
0.0040232713338595955
0.004265425810118978
0.004508735338893786
0.004753036163806207
0.004998179440148089
0.00524403279076665
0.005490480526065825
0.005737422995948966
0.00598477541503776
0.006232466405344008
0.00648043642666661
0.006728636209485063
0.006977025264115874
0.0072255705101735065
0.007474245049389737
0.00772302709057401
0.007971899026372794
0.008220846656416047
0.008469858549779961
0.008718925541422867
0.008968040363312465
0.009217197423997481
0.009466392773175713
0.009715624297686609
0.009959605885429339
0.009954885379875643
0.009950729376614623
0.009947134644622732
0.009944097828547143
0.00994161615320939
0.009939687591630565
0.009938310805616362
0.009937485000302991
0.00993720977230258
0.009937485000302946
0.009938310805616274
0.009939687591630424
0.009941616153209218
0.009944097828546956
0.009947134644622553
0.009950729376614453
0.0099548853798755
0.009959605885429228
0.00971562429768966
0.009466392773181894
0.009217197424006798
0.008968040363324914
0.008718925541438454
0.008469858549798677
0.008220846656437885
0.007971899026397758
0.0077230270906021034
0.007474245049420953
0.0072255705102078375
0.0069770252641533186
0.006728636209525613
0.0064804364267102505
0.0062324664053890755
0.0059847754150823725
0.00573742299599312
0.005490480526109506
0.005244032790809833
0.004998179440190762
0.004753036163848345
0.004508735338935366
0.004265425810159981
0.004023271333900006
0.003782447054829479
0.0035431331712137
0.0033055046670584128
0.003069715616106911
0.002835876039587447
0.00260401851871546
0.0023740505011330135
0.002145686010819779
0.0019183462002346275
0.0016910088728516667
0.0014619673022517707
0.0012283896847653892
0.0009854703565201175
0.0007236710356530797
0.00042382972051285047
0.0
0.0
0.0
0.0
0.0
0.0
0.0
0.0
0.0
0.0
0.0
0.0
0.0
0.0
0.0
0.0
0.0
0.0
0.0
0.00029804500929811456
0.0002631715809855311
0.0002448533447978258
0.00023418077825865642
0.00022725779937114826
0.00022260335308516154
0.00021946139023788772
0.00021742975609004983
0.000216285717310558
0.00021591599524708923
0.00021628571731087452
0.0002174297560906929
0.00021946139023887112
0.00022260335308647657
0.00022725779937281533
0.0002341807782607117
0.0002448533448003408
0.0002631715809886216
0.0002980450093021277
0.0006074584445566385
0.0005375599687097838
0.0005005334955026646
0.0004777875230220723
0.0004630192077631434
0.0004530713088113361
0.0004463649207567584
0.00044203247926635124
0.0004395945663234055
0.0004388069552598632
0.0004395945663240631
0.00044203247926768633
0.0004463649207587996
0.00045307130881406865
0.0004630192077666094
0.00047778752302634323
0.0005005334955078482
0.0005375599687160274
0.0006074584445637579
0.0008850137699087522
0.0008103554514172678
0.000760365156955546
0.0007276618506666484
0.0007055481365702457
0.0006903879217352013
0.0006800651890718651
0.0006733613375250819
0.0006695781868602238
0.0006683544457511811
0.0006695781868612242
0.0006733613375271117
0.0006800651890749621
0.0006903879217393374
0.0007055481365754676
0.0007276618506730177
0.0007603651569631159
0.0008103554514259444
0.0008850137699179111
0.0011434309026810635
0.001072604288820785
0.0010189474755089778
0.0009801807424081367
0.0009526026409723819
0.000933085559907999
0.0009195476630077351
0.0009106568527568866
0.0009056077686693798
0.0009039698299492537
0.0009056077686707115
0.0009106568527595822
0.0009195476630118342
0.0009330855599134481
0.0009526026409792045
0.0009801807424163402
0.0010189474755184932
0.0010726042888313202
0.0011434309026919765
0.0013901783658994704
0.0013261899864439892
0.0012736556178035458
0.0012328277321015878
0.0012021308165474716
0.0011796118919184095
0.0011636157338825361
0.001152951394428266
0.0011468410316281346
0.0011448506230285133
0.001146841031629789
0.001152951394431608
0.0011636157338875944
0.001179611891925096
0.0012021308165557716
0.0012328277321114376
0.0012736556178147762
0.0013261899864562444
0.0013901783659121928
0.0016303094485324242
0.0015737044127123508
0.0015246442936450956
0.001484394563041004
0.0014527044268625633
0.0014286239118215464
0.0014110892836305207
0.0013992025978578012
0.0013923220757160423
0.001390069930235667
0.0013923220757180407
0.0013992025978618254
0.0014110892836365805
0.001428623911829525
0.0014527044268723985
0.0014843945630525746
0.0015246442936581819
0.001573704412726594
0.0016303094485473654
0.0018669398950321133
0.0018174080791983516
0.001772774417457033
0.0017346541151845333
0.0017035141713477207
0.001679119870907883
0.0016609393652020556
0.001648411437682567
0.0016410842076326117
0.001638673818720955
0.0016410842076349382
0.0016484114376872402
0.001660939365209067
0.0016791198709170836
0.0017035141713590124
0.001734654115197762
0.0017727744174719584
0.0018174080792146457
0.0018669398950493972
0.002102051006676435
0.0020589560954454625
0.0020189823229880294
0.0019837882379662875
0.001954195578046356
0.0019304225975681293
0.0019123438775481769
0.0018996994982095386
0.0018922322317179291
0.0018897640641781703
0.0018922322317205683
0.0018996994982148254
0.0019123438775560863
0.0019304225975784897
0.001954195578059052
0.00198378823798114
0.0020189823230048055
0.0020589560954638684
0.0021020510066961594
0.002336894592222741
0.0022995021335763203
0.0022640493333435153
0.002232102702160072
0.0022046274354682502
0.0021821034664037614
0.002164683843163263
0.002152343655518733
0.002144993614800577
0.002142553847717009
0.002144993614803515
0.002152343655524607
0.002164683843172032
0.0021821034664152466
0.002204627435482321
0.00223210270217655
0.0022640493333621766
0.0022995021335969084
0.002336894592244999
0.002572244696436904
0.0025398193472170026
0.002508563658416488
0.002479895437361283
0.00245480389689648
0.002433900804040788
0.002417512422743422
0.0024057789743143444
0.00239873981823861
0.002396394750899736
0.002398739818241836
0.002405778974320786
0.002417512422753028
0.0024339008040533752
0.002454803896911918
0.0024798954373793976
0.0025085636584370767
0.002539819347239841
0.00257224469646178
0.0028085550762726908
0.0027804047941154836
0.0027529397395243257
0.002727410304019443
0.0027047637344983803
0.002685659297477712
0.0026705176936695748
0.002659583664783389
0.002652985359759464
0.0026507805717114275
0.00265298535976297
0.0026595836647903886
0.0026705176936800057
0.0026856592974913965
0.002704763734515195
0.0027274103040392235
0.0027529397395468854
0.0027804047941406324
0.002808555076300248
0.0030460638001660535
0.003021559122014823
0.0029974530991671014
0.002974828573430767
0.0029545562659464087
0.002937290058533298
0.002923489550942957
0.0029134565215017056
0.002907373499643366
0.0029053360115557404
0.002907373499647152
0.0029134565215092516
0.002923489550954203
0.002937290058548084
0.002954556265964612
0.0029748285734522376
0.0029974530991916763
0.0030215591220423286
0.003046063800196348
0.0032848648082202526
0.003263445808824315
0.003242274628269319
0.003222275607826105
0.003204227053895613
0.003188745822777941
0.003176293149724418
0.0031671931622624504
0.0031616558143095458
0.0031597976345559766
0.0031616558143135716
0.003167193162270483
0.0031762931497363936
0.0031887458227937136
0.003204227053915072
0.0032222756078491128
0.0032422746282957274
0.0032634458088539823
0.0032848648082530606
0.003524957839960163
0.0035061345819560894
0.0034874995718526766
0.0034698320963561843
0.0034538133590357525
0.003440005740535639
0.003428848463372476
0.0034206641444992658
0.0034156705262709053
0.003413992459937053
0.0034156705262751177
0.003420664144507667
0.0034288484633850096
0.0034400057405521785
0.003453813359056194
0.0034698320963804058
0.0034874995718805536
0.003506134581987498
0.0035249578399950063
0.003766283518356581
0.0037496329571954814
0.0037331703855583574
0.003717545323038559
0.003703343880164191
0.003691065904291025
0.003681114760064137
0.0036737961873001533
0.0036693223385425976
0.0036678174418834546
0.0036693223385469136
0.003673796187308766
0.00368111476007699
0.0036910659043080077
0.003703343880185207
0.0037175453230635152
0.0037331703855871486
0.0037496329572279967
0.0037662835183927437
0.004008747945004664
0.003993908915855898
0.003979294046285558
0.0039654387838035186
0.00395284005561047
0.003941933239528319
0.00393307886224158
0.00392655675456804
0.0039225650409556315
0.003921221464676699
0.0039225650409599605
0.003926556754576677
0.00393307886225447
0.003941933239545371
0.003952840055631615
0.003965438783828667
0.003979294046314624
0.003993908915888791
0.004008747945041328
0.004252239749379908
0.004238906999139846
0.004225854788831231
0.004213519760456328
0.004202317680804765
0.004192621399688123
0.004184746295308976
0.004178941795881813
0.0041753872491033855
0.004174190427105085
0.00417538724910772
0.004178941795890471
0.004184746295321922
0.004192621399705271
0.004202317680826049
0.0042135197604816765
0.0042258547888605795
0.004238906999173116
0.004252239749417058
0.004496641666733286
0.00448455953373622
0.004472823249222913
0.004461784994213365
0.004451788349634486
0.004443147911031762
0.004436134658576513
0.004430966251713432
0.004427801145854897
0.0044267353915140185
0.004427801145859243
0.004430966251722133
0.004436134658589523
0.0044431479110490085
0.004451788349655924
0.0044617849942389255
0.004472823249252549
0.0044845595337698755
0.004496641666770907
0.00474183814891283
0.0047307942790146
0.004720162870133626
0.004710224783243314
0.0047012605815617906
0.004693532148998522
0.004687268719188348
0.004682656877308539
0.004679833867944737
0.004678883479933741
0.004679833867949111
0.00468265687731728
0.004687268719201426
0.00469353214901588
0.004701260581583382
0.0047102247832691
0.004720162870163553
0.0047307942790486245
0.004741838148950916
0.004987720117522516
0.0049775394669224335
0.004967834266177598
0.004958825852391367
0.0049507406455720155
0.0049437939047669325
0.004938176846825036
0.004934046954073585
0.004931521105138563
0.0049306710897983365
0.004931521105142957
0.004934046954082375
0.004938176846838192
0.0049437939047844125
0.004950740645593776
0.0049588258524173754
0.0049678342662078144
0.0049775394669568235
0.004987720117561047
0.00523418768401446
0.00522472696376591
0.005215798096929694
0.0052075733038066795
0.005200233141673299
0.005193952391577075
0.005188888489424664
0.005185172501721729
0.005182902484993314
0.005182138991320476
0.005182902484997733
0.005185172501730574
0.005188888489437899
0.005193952391594679
0.00520023314169524
0.005207573303832916
0.005215798096960198
0.005224726963800664
0.00523418768405343
0.005481151450183313
0.0054722940990300575
0.005464016867128269
0.005456451899033773
0.005449741406330241
0.005444025587115604
0.00543943245083222
0.005436069659339682
0.00543401835938746
0.005433328906220446
0.005434018359391909
0.005436069659348588
0.0054394324508455485
0.005444025587133335
0.005449741406352355
0.005456451899060242
0.0054640168671590715
0.005472294099065161
0.005481151450222707
0.005728532843502261
0.005720184566290964
0.005712455969428157
0.005705446865847577
0.005699267797434457
0.005694029833724435
0.00568983577824759
0.005686772959064479
0.005684907665817638
0.005684281223991654
0.005684907665822122
0.005686772959073444
0.005689835778261022
0.005694029833742305
0.005699267797456753
0.005705446865874276
0.005712455969459253
0.00572018456632642
0.0057285328435420675
0.0059762638210775825
0.005968348694775678
0.005961084203396983
0.005954544374101519
0.0059488138999044945
0.005943979633891054
0.005940123105190793
0.005937314267428646
0.005935606594440655
0.005935033571755363
0.005935606594445171
0.005937314267437677
0.005940123105204324
0.005943979633909069
0.005948813899926978
0.00595454437412846
0.005961084203428356
0.005968348694811478
0.005976263821117788
0.006224286184356343
0.0062167433094463724
0.006209873941742884
0.0062037317858147974
0.006198380679937554
0.006193887589819883
0.0061903163269322655
0.006187722214638447
0.006186147845068409
0.00618562000956633
0.006186147845072958
0.006187722214647548
0.006190316326945895
0.006193887589838042
0.006198380679960224
0.00620373178584197
0.0062098739417745475
0.00621674330948251
0.006224286184396953
0.006472550677364559
0.006465331336658499
0.006458801067356154
0.006452997754912759
0.00644796860587038
0.006443764445172959
0.006440434511321887
0.006438021970564907
0.006436560304482166
0.0064360706717448155
0.0064365603044865575
0.0064380219705736964
0.006440434511335059
0.006443764445190502
0.006447968605892293
0.006452997754939035
0.006458801067386788
0.006465331336693476
0.006472550677403873
0.006721015989117418
0.006714081266853193
0.006707844769314389
0.006702332229879014
0.006697577746535985
0.00669361919514729
0.006690493969524026
0.006688235258281324
0.006686869013072353
0.006686411715690371
0.006686869013076418
0.006688235258289473
0.006690493969536242
0.006693619195163566
0.006697577746556315
0.006702332229903398
0.006707844769342837
0.0067140812668856804
0.0067210159891539405
0.0069696477420525
0.0069629665518373685
0.006956987259772127
0.006951726396414365
0.006947207853368828
0.0069434592381650735
0.0069405084289266335
0.006938380522170721
0.006937095321379788
0.0069366654730474726
0.006937095321383548
0.006938380522178236
0.0069405084289378876
0.006943459238180075
0.006947207853387575
0.0069517263964368635
0.006956987259798376
0.006962966551867352
0.006969647742086226
0.007218417519827693
0.007211964989190602
0.007206213454374362
0.007201172585526705
0.007196858429627794
0.007193290548604218
0.007190489264925574
0.007188473188681756
0.007187257162431906
0.007186850724880778
0.007187257162435348
0.007188473188688627
0.007190489264935881
0.007193290548617956
0.007196858429644973
0.007201172585547307
0.007206213454398412
0.0072119649892180785
0.007218417519858607
0.007467301967237194
0.00746105812808788
0.007455510644761318
0.007450664164102603
0.007446528788397835
0.007443117855193905
0.007440445759851361
0.007438525974496362
0.007437369385759729
0.007436983043652874
0.007437369385762857
0.007438525974502595
0.0074404457598607095
0.007443117855206373
0.007446528788413426
0.007450664164121322
0.0074555106447831655
0.007461058128112857
0.007467301967265287
0.0077162819804774225
0.007710230717679446
0.007704868181510963
0.007700195419004815
0.007696218100055451
0.007692944813976664
0.007690385366438172
0.007688549209910593
0.007687444114543856
0.007687075161231395
0.007687444114546664
0.007688549209916189
0.007690385366446574
0.0076929448139878695
0.007696218100069466
0.007700195419021641
0.00770486818153061
0.007710230717701905
0.007716281980502691
0.007965341996076682
0.007959470209796819
0.007954277178422503
0.00794976144138727
0.007945925429337723
0.007942774168181638
0.007940313960345951
0.00793855115527215
0.007937491099267063
0.007937137334733236
0.007937491099269544
0.007938551155277114
0.007940313960353402
0.00794277416819158
0.007945925429350163
0.007949761441402218
0.007954277178439956
0.007959470209816768
0.007965341996099131
0.008214469380378049
0.00820876632109991
0.008203730243550847
0.008199358014742262
0.008195649761911552
0.008192607890128416
0.00819023607172767
0.008188538295928924
0.008187518050223325
0.00818717769145451
0.008187518050225492
0.008188538295933254
0.008190236071734172
0.0081926078901371
0.008195649761922427
0.00819935801475532
0.008203730243566095
0.00820876632111735
0.008214469380397686
0.008463653917626272
0.00845811065488907
0.008453221238207851
0.008448981507949592
0.008445390020450068
0.008442447302598128
0.008440155090011352
0.008438515606760637
0.008437530937783289
0.008437202541010262
0.008437530937785145
0.008438515606764339
0.008440155090016912
0.008442447302605547
0.008445390020459369
0.008448981507960767
0.008453221238220903
0.008458110654904004
0.00846365391764309
0.008712887392593302
0.008707496378724902
0.008702745061915568
0.008698628773469674
0.008695145070954608
0.00869229317913077
0.008690073439090354
0.008688486781264932
0.008687534253865816
0.008687216647600951
0.008687534253867354
0.008688486781268006
0.008690073439094963
0.00869229317913694
0.00869514507096233
0.00869862877347895
0.008702745061926415
0.00870749637873732
0.008712887392607293
0.008962163262001641
0.00895691794980288
0.008952297459656519
0.008948297051809192
0.008944913721714636
0.008942145824162565
0.00893999272172362
0.008938454422448491
0.008937531231028832
0.008937223458565296
0.008937531231030058
0.00893845442245093
0.008939992721727286
0.008942145824167462
0.00894491372172078
0.008948297051816574
0.008952297459665167
0.00895691794981279
0.008962163262012818
0.009211476404723792
0.009206370876278458
0.00920187485143919
0.009197983888451083
0.009194694718956627
0.009192005133042894
0.009189913831302179
0.009188420193528477
0.009187524017651093
0.009187225287939853
0.009187524017651993
0.009188420193530285
0.009189913831304899
0.009192005133046521
0.00919469471896118
0.009197983888456577
0.009201874851445628
0.009206370876285853
0.00921147640473214
0.00946082292738746
0.00945585150980478
0.009451474204886907
0.009447687077506473
0.009444486737869275
0.00944187062503229
0.009439837025279103
0.009438384926375085
0.009437513810239629
0.009437223457229355
0.009437513810240213
0.009438384926376256
0.009439837025280867
0.009441870625034652
0.009444486737872248
0.00944768707751008
0.009451474204891142
0.009455851509809664
0.009460822927392979
0.009710199980980255
0.009705356948123104
0.009701093016759645
0.009697404626787084
0.009694288341934792
0.0096917414256898
0.009689761948440012
0.009688348687056756
0.009687500949596644
0.009687218402649973
0.009687500949596911
0.009688348687057305
0.009689761948440819
0.009691741425690896
0.00969428834193618
0.009697404626788801
0.00970109301676168
0.009705356948125476
0.009710199980982957
