# vtk DataFile Version 2.0
mesh vtk view
ASCII
DATASET UNSTRUCTURED_GRID
POINTS 861 double
0.0 0.0 0.0
380.00114088461845 -1.509071245637247 0.0
380.0011408846186 201.50907124563707 0.0
0.0 200.0 0.0
9.289553686725263 -0.4721245133469423 0.0
18.74740176194315 -0.7432046608234827 0.0
28.257160075370642 -0.9467643366905063 0.0
37.784519441102795 -1.0972365738284136 0.0
47.31849533492071 -1.211325603827839 0.0
56.853815439855886 -1.2979100562440418 0.0
66.387813525649 -1.3634259334168473 0.0
75.91907440701905 -1.4125806515725412 0.0
85.44690573268383 -1.448999358788033 0.0
94.97105073483554 -1.475525098805901 0.0
104.49152338580234 -1.4944132357564694 0.0
114.00850402530625 -1.5074592112613905 0.0
123.52227034037752 -1.516090653795688 0.0
133.03315042570932 -1.5214373399535392 0.0
142.54149068802587 -1.5243866777332558 0.0
152.0476341907427 -1.5256289195606214 0.0
161.55190654920548 -1.5256945876134276 0.0
171.05460734267484 -1.524985658404255 0.0
180.55600554091558 -1.523801555347598 0.0
190.0563378041412 -1.5223607278327025 0.0
199.55580877976433 -1.5208184444890949 0.0
209.05459272412503 -1.5192813372408922 0.0
218.55283594028012 -1.5178191699410088 0.0
228.05065965372492 -1.5164742549308436 0.0
237.5481630525092 -1.5152688954276554 0.0
247.0454263008458 -1.5142111883643752 0.0
256.54251339923127 -1.513299480582702 0.0
266.0394748130938 -1.5125257314429685 0.0
275.53634982764555 -1.5118779975767034 0.0
285.0331686120913 -1.5113422212440863 0.0
294.529953993846 -1.5109034729933386 0.0
304.02672295381683 -1.510546772334717 0.0
313.5234878588628 -1.5102575871852773 0.0
323.02025744759203 -1.510022094381459 0.0
332.51703758032886 -1.5098272709562581 0.0
342.0138317513872 -1.5096608832344953 0.0
351.5106413371181 -1.5095114615332803 0.0
361.0074655139825 -1.5093684381828374 0.0
370.5043007846749 -1.5092229540303708 0.0
380.00098649377543 8.641876018640161 0.0
380.00082596186974 18.792818615079227 0.0
380.0006629956432 28.943750870972284 0.0
380.00050540486615 39.094670383670795 0.0
380.00036087322576 49.24557745945291 0.0
380.0002356822557 59.3964738910898 0.0
380.0001344544697 69.54736206049797 0.0
380.0000603077454 79.69824438728173 0.0
380.0000151544241 89.84912306232921 0.0
380.0 99.99999999964197 0.0
380.0000151544241 110.15087693695473 0.0
380.0000603077454 120.30175561200227 0.0
380.00013445446973 130.45263793880514 0.0
380.0002356822558 140.6035261082972 0.0
380.0003608732259 150.7544225400424 0.0
380.0005054048662 160.9053296159326 0.0
380.0006629956433 171.0562491287393 0.0
380.00082596186985 181.20718138473154 0.0
380.00098649377554 191.35812398126302 0.0
370.5043007847945 201.5092229540302 0.0
361.0074655142215 201.5093684381827 0.0
351.5106413374766 201.50951146153315 0.0
342.0138317518651 201.50966088323437 0.0
332.5170375809261 201.50982727095615 0.0
323.02025744830877 201.51002209438138 0.0
313.52348785969883 201.5102575871852 0.0
304.02672295477225 201.51054677233464 0.0
294.5299539949209 201.51090347299328 0.0
285.0331686132855 201.511342221244 0.0
275.53634982895926 201.51187799757662 0.0
266.039474814527 201.51252573144288 0.0
256.54251340078383 201.5132994805826 0.0
247.0454263025178 201.51421118836424 0.0
237.54816305423742 201.51526889542748 0.0
228.05065965543758 201.51647425493067 0.0
218.55283594197726 201.5178191699408 0.0
209.05459272580674 201.51928133724067 0.0
199.55580878143056 201.52081844448887 0.0
190.0563378057921 201.5223607278325 0.0
180.55600554255108 201.52380155534743 0.0
171.0546073442949 201.52498565840415 0.0
161.5519065508102 201.52569458761343 0.0
152.04763419233234 201.5256289195608 0.0
142.5414906896002 201.52438667773367 0.0
133.03315042723258 201.52143733995428 0.0
123.52227034181801 201.5160906537968 0.0
114.00850402664187 201.50745921126298 0.0
104.49152338702143 201.49441323575857 0.0
94.97105073593804 201.4755250988086 0.0
85.44690573366962 201.44899935879133 0.0
75.91907440788802 201.4125806515765 0.0
66.38781352640106 201.3634259334214 0.0
56.85381544049089 201.29791005624915 0.0
47.318495335439835 201.21132560383336 0.0
37.78451944152012 201.09723657383427 0.0
28.257160075687274 200.94676433669648 0.0
18.747401762154556 200.74320466082892 0.0
9.289553686828112 200.47212451335088 0.0
0.0 190.0000000000711 0.0
0.0 180.0000000001421 0.0
0.0 170.0000000002132 0.0
0.0 160.0000000002842 0.0
0.0 150.0000000003553 0.0
0.0 140.0000000004263 0.0
0.0 130.0000000004974 0.0
0.0 120.0000000005163 0.0
0.0 110.0000000005163 0.0
0.0 100.0000000005163 0.0
0.0 90.00000000051627 0.0
0.0 80.00000000051628 0.0
0.0 70.00000000049741 0.0
0.0 60.00000000042633 0.0
0.0 50.0000000003553 0.0
0.0 40.00000000028422 0.0
0.0 30.00000000021316 0.0
0.0 20.00000000014211 0.0
0.0 10.00000000007105 0.0
9.486055241985728 9.690664188972711 0.0
9.52542788788686 19.764775589395278 0.0
9.544267924772209 29.812487068544865 0.0
9.553433154452957 39.84926337650907 0.0
9.55861339457892 49.88007822836291 0.0
9.561679473116858 59.90728060442211 0.0
9.563545688259007 69.93215335190493 0.0
9.564659147516455 79.95552017909077 0.0
9.565252794184564 89.97797572309229 0.0
9.565439393579123 100.00000000049569 0.0
9.56525279419506 110.02202427789909 0.0
9.564659147537437 120.04447982190068 0.0
9.563545688290459 130.06784664905038 0.0
9.56167947315877 140.09271939639672 0.0
9.558613394631264 150.11992177232017 0.0
9.553433154515677 160.1507366240382 0.0
9.544267924845188 170.18751293186696 0.0
9.525427887969931 180.2352244108809 0.0
9.486055242078251 190.30933581116804 0.0
18.932638703418863 9.403782816828366 0.0
19.02421594703774 19.532686549247497 0.0
19.06464054039316 29.625911519373105 0.0
19.086591513172277 39.699359737429006 0.0
19.09925721929178 49.76108371503969 0.0
19.107001083542702 59.81545554141057 0.0
19.111821999464198 69.86505626731764 0.0
19.114754469638363 79.91157247538236 0.0
19.116339081620733 89.95622618873237 0.0
19.116840712233447 100.00000000047487 0.0
19.116339081641936 110.04377381221751 0.0
19.114754469680726 120.0884275255678 0.0
19.111821999527706 130.13494373359794 0.0
19.10700108362733 140.18454445937414 0.0
19.099257219397458 150.23891628561555 0.0
19.086591513298885 160.30064026309697 0.0
19.064640540540513 170.37408848102373 0.0
19.024215947205498 180.4673134510199 0.0
18.93263870360703 190.5962171833086 0.0
28.408966456767658 9.199170571083323 0.0
28.50933712841874 19.338239012817226 0.0
28.56836862669526 29.459287381604423 0.0
28.602709814381768 39.56136876156523 0.0
28.623837368462308 49.6498399017639 0.0
28.637206625894272 59.72888010922657 0.0
28.645747918610706 69.80148446879416 0.0
28.65103506980417 79.86981568021301 0.0
28.65392489787096 89.93553017336282 0.0
28.654844848720433 100.00000000045401 0.0
28.653924897902503 110.06446982754535 0.0
28.65103506986722 120.13018432069548 0.0
28.64574791870521 130.19851553208133 0.0
28.63720662602021 140.27111989152357 0.0
28.62383736861958 150.35016009886303 0.0
28.60270981457026 160.4386312389386 0.0
28.568368626914786 170.5407126187764 0.0
28.5093371286693 180.66176098743955 0.0
28.408966457050102 190.80082942904818 0.0
37.9058018264573 9.04586689295159 0.0
37.99949134533744 19.188689341856584 0.0
38.06450676559569 29.32211292242321 0.0
38.1075570872218 39.44286793413336 0.0
38.13589493731009 49.55174146334825 0.0
38.1547011721827 59.651263913517795 0.0
38.1670892930617 69.74389825325967 0.0
38.17491672298589 79.8317512247381 0.0
38.17924902790074 89.91659978017456 0.0
38.18063651542024 100.00000000043298 0.0
38.17924902794219 110.08340022069156 0.0
38.17491672306872 120.16824877612841 0.0
38.16708929318588 130.2561017475752 0.0
38.154701172348226 140.34873608719732 0.0
38.135894937516866 150.4482585372497 0.0
38.10755708746976 160.55713206634744 0.0
38.06450676588484 170.67788707794034 0.0
37.9994913456681 180.81131065838858 0.0
37.90580182683049 190.95413310717376 0.0
47.41444643517027 8.930749383188022 0.0
47.49641045653538 19.074610679640404 0.0
47.5599686137226 29.214314374047085 0.0
47.60644538589613 39.346222966344634 0.0
47.63943230745075 49.469457730878716 0.0
47.66244840987377 59.58484870313224 0.0
47.678146840832525 69.69395316151322 0.0
47.68829638336786 79.79845159301489 0.0
47.69399384163792 89.89995946276348 0.0
47.69583082329965 100.00000000041179 0.0
47.693993841689405 110.10004053806016 0.0
47.68829638347077 120.20154840780924 0.0
47.67814684098684 130.3060468392806 0.0
47.662448410079456 140.41515129754723 0.0
47.63943230770781 150.53054226968968 0.0
47.606445386204605 160.65377703411258 0.0
47.55996861408264 170.78568562629874 0.0
47.49641045694747 180.92538932059264 0.0
47.4144464356353 191.069250616931 0.0
56.92918287162984 8.843929749220955 0.0
56.998613080427944 18.988346533140636 0.0
57.05694327147492 29.13140702212026 0.0
57.10297445972093 39.27014650807319 0.0
57.137804144011646 49.40313331233815 0.0
57.163324925132805 59.53028136924531 0.0
57.181349344288535 69.65233448603159 0.0
57.193284818333645 79.77043836401539 0.0
57.200085055764966 89.88588431045964 0.0
57.202293275394545 100.00000000039041 0.0
57.20008505582792 110.11411569032121 0.0
57.19328481845948 120.22956163676582 0.0
57.18134934447723 130.3476655147207 0.0
57.16332492538449 140.4697186313982 0.0
57.13780414432631 150.59686668820018 0.0
57.10297446009867 160.72985349235992 0.0
57.05694327191603 170.86859297820752 0.0
56.9986130809329 181.01165346708015 0.0
56.929182872199426 191.1560702508917 0.0
66.44653440086482 8.778735921022422 0.0
66.50417323706588 18.923628728214016 0.0
66.55573137379095 29.06871286448897 0.0
66.59891876035108 39.211754156877284 0.0
66.6333627072617 49.35134614812929 0.0
66.65970626773326 59.48698545824498 0.0
66.67892755024148 69.61888481002836 0.0
66.69195158556415 79.74771624660146 0.0
66.69948131175802 89.87440546565581 0.0
66.70194379263842 100.00000000036879 0.0
66.69948131183256 110.12559453508197 0.0
66.69195158571326 120.25228375413666 0.0
66.6789275504651 130.38111519068212 0.0
66.65970626803148 140.5130145423621 0.0
66.63336270763467 150.64865385237871 0.0
66.59891876079901 160.78824584353146 0.0
[...]
POINT_DATA 861
SCALARS CellEntityIds float 1
LOOKUP_TABLE default
0.0
0.009964891831447184
0.009964891831447099
0.0
0.00042382972050872806
0.0007236710356467099
0.0009854703565116841
0.0012283896847549362
0.001461967302239163
0.0016910088728364536
0.001918346200216671
0.0021456860107989745
0.0023740505011092643
0.0026040185186886884
0.002835876039557586
0.0030697156160739156
0.003305504667022537
0.0035431331711754687
0.0037824470547896953
0.0040232713338595955
0.004265425810118978
0.004508735338893786
0.004753036163806207
0.004998179440148089
0.00524403279076665
0.005490480526065825
0.005737422995948966
0.00598477541503776
0.006232466405344008
0.00648043642666661
0.006728636209485063
0.006977025264115874
0.0072255705101735065
0.007474245049389737
0.00772302709057401
0.007971899026372794
0.008220846656416047
0.008469858549779961
0.008718925541422867
0.008968040363312465
0.009217197423997481
0.009466392773175713
0.009715624297686609
0.009959605885429339
0.009954885379875643
0.009950729376614623
0.009947134644622732
0.009944097828547143
0.00994161615320939
0.009939687591630565
0.009938310805616362
0.009937485000302991
0.00993720977230258
0.009937485000302946
0.009938310805616274
0.009939687591630424
0.009941616153209218
0.009944097828546956
0.009947134644622553
0.009950729376614453
0.0099548853798755
0.009959605885429228
0.00971562429768966
0.009466392773181894
0.009217197424006798
0.008968040363324914
0.008718925541438454
0.008469858549798677
0.008220846656437885
0.007971899026397758
0.0077230270906021034
0.007474245049420953
0.0072255705102078375
0.0069770252641533186
0.006728636209525613
0.0064804364267102505
0.0062324664053890755
0.0059847754150823725
0.00573742299599312
0.005490480526109506
0.005244032790809833
0.004998179440190762
0.004753036163848345
0.004508735338935366
0.004265425810159981
0.004023271333900006
0.003782447054829479
0.0035431331712137
0.0033055046670584128
0.003069715616106911
0.002835876039587447
0.00260401851871546
0.0023740505011330135
0.002145686010819779
0.0019183462002346275
0.0016910088728516667
0.0014619673022517707
0.0012283896847653892
0.0009854703565201175
0.0007236710356530797
0.00042382972051285047
0.0
0.0
0.0
0.0
0.0
0.0
0.0
0.0
0.0
0.0
0.0
0.0
0.0
0.0
0.0
0.0
0.0
0.0
0.0
0.00029804500929811456
0.0002631715809855311
0.0002448533447978258
0.00023418077825865642
0.00022725779937114826
0.00022260335308516154
0.00021946139023788772
0.00021742975609004983
0.000216285717310558
0.00021591599524708923
0.00021628571731087452
0.0002174297560906929
0.00021946139023887112
0.00022260335308647657
0.00022725779937281533
0.0002341807782607117
0.0002448533448003408
0.0002631715809886216
0.0002980450093021277
0.0006074584445566385
0.0005375599687097838
0.0005005334955026646
0.0004777875230220723
0.0004630192077631434
0.0004530713088113361
0.0004463649207567584
0.00044203247926635124
0.0004395945663234055
0.0004388069552598632
0.0004395945663240631
0.00044203247926768633
0.0004463649207587996
0.00045307130881406865
0.0004630192077666094
0.00047778752302634323
0.0005005334955078482
0.0005375599687160274
0.0006074584445637579
0.0008850137699087522
0.0008103554514172678
0.000760365156955546
0.0007276618506666484
0.0007055481365702457
0.0006903879217352013
0.0006800651890718651
0.0006733613375250819
0.0006695781868602238
0.0006683544457511811
0.0006695781868612242
0.0006733613375271117
0.0006800651890749621
0.0006903879217393374
0.0007055481365754676
0.0007276618506730177
0.0007603651569631159
0.0008103554514259444
0.0008850137699179111
0.0011434309026810635
0.001072604288820785
0.0010189474755089778
0.0009801807424081367
0.0009526026409723819
0.000933085559907999
0.0009195476630077351
0.0009106568527568866
0.0009056077686693798
0.0009039698299492537
0.0009056077686707115
0.0009106568527595822
0.0009195476630118342
0.0009330855599134481
0.0009526026409792045
0.0009801807424163402
0.0010189474755184932
0.0010726042888313202
0.0011434309026919765
0.0013901783658994704
0.0013261899864439892
0.0012736556178035458
0.0012328277321015878
0.0012021308165474716
0.0011796118919184095
0.0011636157338825361
0.001152951394428266
0.0011468410316281346
0.0011448506230285133
0.001146841031629789
0.001152951394431608
0.0011636157338875944
0.001179611891925096
0.0012021308165557716
0.0012328277321114376
0.0012736556178147762
0.0013261899864562444
0.0013901783659121928
0.0016303094485324242
0.0015737044127123508
0.0015246442936450956
0.001484394563041004
0.0014527044268625633
0.0014286239118215464
0.0014110892836305207
0.0013992025978578012
0.0013923220757160423
0.001390069930235667
0.0013923220757180407
0.0013992025978618254
0.0014110892836365805
0.001428623911829525
0.0014527044268723985
0.0014843945630525746
0.0015246442936581819
0.001573704412726594
0.0016303094485473654
0.0018669398950321133
0.0018174080791983516
0.001772774417457033
0.0017346541151845333
0.0017035141713477207
0.001679119870907883
0.0016609393652020556
0.001648411437682567
0.0016410842076326117
0.001638673818720955
0.0016410842076349382
0.0016484114376872402
0.001660939365209067
0.0016791198709170836
0.0017035141713590124
0.001734654115197762
0.0017727744174719584
0.0018174080792146457
0.0018669398950493972
0.002102051006676435
0.0020589560954454625
0.0020189823229880294
0.0019837882379662875
0.001954195578046356
0.0019304225975681293
0.0019123438775481769
0.0018996994982095386
0.0018922322317179291
0.0018897640641781703
0.0018922322317205683
0.0018996994982148254
0.0019123438775560863
0.0019304225975784897
0.001954195578059052
0.00198378823798114
0.0020189823230048055
0.0020589560954638684
0.0021020510066961594
0.002336894592222741
0.0022995021335763203
0.0022640493333435153
0.002232102702160072
0.0022046274354682502
0.0021821034664037614
0.002164683843163263
0.002152343655518733
0.002144993614800577
0.002142553847717009
0.002144993614803515
0.002152343655524607
0.002164683843172032
0.0021821034664152466
0.002204627435482321
0.00223210270217655
0.0022640493333621766
0.0022995021335969084
0.002336894592244999
0.002572244696436904
0.0025398193472170026
0.002508563658416488
0.002479895437361283
0.00245480389689648
0.002433900804040788
0.002417512422743422
0.0024057789743143444
0.00239873981823861
0.002396394750899736
0.002398739818241836
0.002405778974320786
0.002417512422753028
0.0024339008040533752
0.002454803896911918
0.0024798954373793976
0.0025085636584370767
0.002539819347239841
0.00257224469646178
0.0028085550762726908
0.0027804047941154836
0.0027529397395243257
0.002727410304019443
0.0027047637344983803
0.002685659297477712
0.0026705176936695748
0.002659583664783389
0.002652985359759464
0.0026507805717114275
0.00265298535976297
0.0026595836647903886
0.0026705176936800057
0.0026856592974913965
0.002704763734515195
0.0027274103040392235
0.0027529397395468854
0.0027804047941406324
0.002808555076300248
0.0030460638001660535
0.003021559122014823
0.0029974530991671014
0.002974828573430767
0.0029545562659464087
0.002937290058533298
0.002923489550942957
0.0029134565215017056
0.002907373499643366
0.0029053360115557404
0.002907373499647152
0.0029134565215092516
0.002923489550954203
0.002937290058548084
0.002954556265964612
0.0029748285734522376
0.0029974530991916763
0.0030215591220423286
0.003046063800196348
0.0032848648082202526
0.003263445808824315
0.003242274628269319
0.003222275607826105
0.003204227053895613
0.003188745822777941
0.003176293149724418
0.0031671931622624504
0.0031616558143095458
0.0031597976345559766
0.0031616558143135716
0.003167193162270483
0.0031762931497363936
0.0031887458227937136
0.003204227053915072
0.0032222756078491128
0.0032422746282957274
0.0032634458088539823
0.0032848648082530606
0.003524957839960163
0.0035061345819560894
0.0034874995718526766
0.0034698320963561843
0.0034538133590357525
0.003440005740535639
0.003428848463372476
0.0034206641444992658
0.0034156705262709053
0.003413992459937053
0.0034156705262751177
0.003420664144507667
0.0034288484633850096
0.0034400057405521785
0.003453813359056194
0.0034698320963804058
0.0034874995718805536
0.003506134581987498
0.0035249578399950063
0.003766283518356581
0.0037496329571954814
0.0037331703855583574
0.003717545323038559
0.003703343880164191
0.003691065904291025
0.003681114760064137
0.0036737961873001533
0.0036693223385425976
0.0036678174418834546
0.0036693223385469136
0.003673796187308766
0.00368111476007699
0.0036910659043080077
0.003703343880185207
0.0037175453230635152
0.0037331703855871486
0.0037496329572279967
0.0037662835183927437
0.004008747945004664
0.003993908915855898
0.003979294046285558
0.0039654387838035186
0.00395284005561047
0.003941933239528319
0.00393307886224158
0.00392655675456804
0.0039225650409556315
0.003921221464676699
0.0039225650409599605
0.003926556754576677
0.00393307886225447
0.003941933239545371
0.003952840055631615
0.003965438783828667
0.003979294046314624
0.003993908915888791
0.004008747945041328
0.004252239749379908
0.004238906999139846
0.004225854788831231
0.004213519760456328
0.004202317680804765
0.004192621399688123
0.004184746295308976
0.004178941795881813
0.0041753872491033855
0.004174190427105085
0.00417538724910772
0.004178941795890471
0.004184746295321922
0.004192621399705271
0.004202317680826049
0.0042135197604816765
0.0042258547888605795
0.004238906999173116
0.004252239749417058
0.004496641666733286
0.00448455953373622
0.004472823249222913
0.004461784994213365
0.004451788349634486
0.004443147911031762
0.004436134658576513
0.004430966251713432
0.004427801145854897
0.0044267353915140185
0.004427801145859243
0.004430966251722133
0.004436134658589523
0.0044431479110490085
0.004451788349655924
0.0044617849942389255
0.004472823249252549
0.0044845595337698755
0.004496641666770907
0.00474183814891283
0.0047307942790146
0.004720162870133626
0.004710224783243314
0.0047012605815617906
0.004693532148998522
0.004687268719188348
0.004682656877308539
0.004679833867944737
0.004678883479933741
0.004679833867949111
0.00468265687731728
0.004687268719201426
0.00469353214901588
0.004701260581583382
0.0047102247832691
0.004720162870163553
0.0047307942790486245
0.004741838148950916
0.004987720117522516
0.0049775394669224335
0.004967834266177598
0.004958825852391367
0.0049507406455720155
0.0049437939047669325
0.004938176846825036
0.004934046954073585
0.004931521105138563
0.0049306710897983365
0.004931521105142957
0.004934046954082375
0.004938176846838192
0.0049437939047844125
0.004950740645593776
0.0049588258524173754
0.0049678342662078144
0.0049775394669568235
0.004987720117561047
0.00523418768401446
0.00522472696376591
0.005215798096929694
0.0052075733038066795
0.005200233141673299
0.005193952391577075
0.005188888489424664
0.005185172501721729
0.005182902484993314
0.005182138991320476
0.005182902484997733
0.005185172501730574
0.005188888489437899
0.005193952391594679
0.00520023314169524
0.005207573303832916
0.005215798096960198
0.005224726963800664
0.00523418768405343
0.005481151450183313
0.0054722940990300575
0.005464016867128269
0.005456451899033773
0.005449741406330241
0.005444025587115604
0.00543943245083222
0.005436069659339682
0.00543401835938746
0.005433328906220446
0.005434018359391909
0.005436069659348588
0.0054394324508455485
0.005444025587133335
0.005449741406352355
0.005456451899060242
0.0054640168671590715
0.005472294099065161
0.005481151450222707
0.005728532843502261
0.005720184566290964
0.005712455969428157
0.005705446865847577
0.005699267797434457
0.005694029833724435
0.00568983577824759
0.005686772959064479
0.005684907665817638
0.005684281223991654
0.005684907665822122
0.005686772959073444
0.005689835778261022
0.005694029833742305
0.005699267797456753
0.005705446865874276
0.005712455969459253
0.00572018456632642
0.0057285328435420675
0.0059762638210775825
0.005968348694775678
0.005961084203396983
0.005954544374101519
0.0059488138999044945
0.005943979633891054
0.005940123105190793
0.005937314267428646
0.005935606594440655
0.005935033571755363
0.005935606594445171
0.005937314267437677
0.005940123105204324
0.005943979633909069
0.005948813899926978
0.00595454437412846
0.005961084203428356
0.005968348694811478
0.005976263821117788
0.006224286184356343
0.0062167433094463724
0.006209873941742884
0.0062037317858147974
0.006198380679937554
0.006193887589819883
0.0061903163269322655
0.006187722214638447
0.006186147845068409
0.00618562000956633
0.006186147845072958
0.006187722214647548
0.006190316326945895
0.006193887589838042
0.006198380679960224
0.00620373178584197
0.0062098739417745475
0.00621674330948251
0.006224286184396953
0.006472550677364559
0.006465331336658499
0.006458801067356154
0.006452997754912759
0.00644796860587038
0.006443764445172959
0.006440434511321887
0.006438021970564907
0.006436560304482166
0.0064360706717448155
0.0064365603044865575
0.0064380219705736964
0.006440434511335059
0.006443764445190502
0.006447968605892293
0.006452997754939035
0.006458801067386788
0.006465331336693476
0.006472550677403873
0.006721015989117418
0.006714081266853193
0.006707844769314389
0.006702332229879014
0.006697577746535985
0.00669361919514729
0.006690493969524026
0.006688235258281324
0.006686869013072353
0.006686411715690371
0.006686869013076418
0.006688235258289473
0.006690493969536242
0.006693619195163566
0.006697577746556315
0.006702332229903398
0.006707844769342837
0.0067140812668856804
0.0067210159891539405
0.0069696477420525
0.0069629665518373685
0.006956987259772127
0.006951726396414365
0.006947207853368828
0.0069434592381650735
0.0069405084289266335
0.006938380522170721
0.006937095321379788
0.0069366654730474726
0.006937095321383548
0.006938380522178236
0.0069405084289378876
0.006943459238180075
0.006947207853387575
0.0069517263964368635
0.006956987259798376
0.006962966551867352
0.006969647742086226
0.007218417519827693
0.007211964989190602
0.007206213454374362
0.007201172585526705
0.007196858429627794
0.007193290548604218
0.007190489264925574
0.007188473188681756
0.007187257162431906
0.007186850724880778
0.007187257162435348
0.007188473188688627
0.007190489264935881
0.007193290548617956
0.007196858429644973
0.007201172585547307
0.007206213454398412
0.0072119649892180785
0.007218417519858607
0.007467301967237194
0.00746105812808788
0.007455510644761318
0.007450664164102603
0.007446528788397835
0.007443117855193905
0.007440445759851361
0.007438525974496362
0.007437369385759729
0.007436983043652874
0.007437369385762857
0.007438525974502595
0.0074404457598607095
0.007443117855206373
0.007446528788413426
0.007450664164121322
0.0074555106447831655
0.007461058128112857
0.007467301967265287
0.0077162819804774225
0.007710230717679446
0.007704868181510963
0.007700195419004815
0.007696218100055451
0.007692944813976664
0.007690385366438172
0.007688549209910593
0.007687444114543856
0.007687075161231395
0.007687444114546664
0.007688549209916189
0.007690385366446574
0.0076929448139878695
0.007696218100069466
0.007700195419021641
0.00770486818153061
0.007710230717701905
0.007716281980502691
0.007965341996076682
0.007959470209796819
0.007954277178422503
0.00794976144138727
0.007945925429337723
0.007942774168181638
0.007940313960345951
0.00793855115527215
0.007937491099267063
0.007937137334733236
0.007937491099269544
0.007938551155277114
0.007940313960353402
0.00794277416819158
0.007945925429350163
0.007949761441402218
0.007954277178439956
0.007959470209816768
0.007965341996099131
0.008214469380378049
0.00820876632109991
0.008203730243550847
0.008199358014742262
0.008195649761911552
0.008192607890128416
0.00819023607172767
0.008188538295928924
0.008187518050223325
0.00818717769145451
0.008187518050225492
0.008188538295933254
0.008190236071734172
0.0081926078901371
0.008195649761922427
0.00819935801475532
0.008203730243566095
0.00820876632111735
0.008214469380397686
0.008463653917626272
0.00845811065488907
0.008453221238207851
0.008448981507949592
0.008445390020450068
0.008442447302598128
0.008440155090011352
0.008438515606760637
0.008437530937783289
0.008437202541010262
0.008437530937785145
0.008438515606764339
0.008440155090016912
0.008442447302605547
0.008445390020459369
0.008448981507960767
0.008453221238220903
0.008458110654904004
0.00846365391764309
0.008712887392593302
0.008707496378724902
0.008702745061915568
0.008698628773469674
0.008695145070954608
0.00869229317913077
0.008690073439090354
0.008688486781264932
0.008687534253865816
0.008687216647600951
0.008687534253867354
0.008688486781268006
0.008690073439094963
0.00869229317913694
0.00869514507096233
0.00869862877347895
0.008702745061926415
0.00870749637873732
0.008712887392607293
0.008962163262001641
0.00895691794980288
0.008952297459656519
0.008948297051809192
0.008944913721714636
0.008942145824162565
0.00893999272172362
0.008938454422448491
0.008937531231028832
0.008937223458565296
0.008937531231030058
0.00893845442245093
0.008939992721727286
0.008942145824167462
0.00894491372172078
0.008948297051816574
0.008952297459665167
0.00895691794981279
0.008962163262012818
0.009211476404723792
0.009206370876278458
0.00920187485143919
0.009197983888451083
0.009194694718956627
0.009192005133042894
0.009189913831302179
0.009188420193528477
0.009187524017651093
0.009187225287939853
0.009187524017651993
0.009188420193530285
0.009189913831304899
0.009192005133046521
0.00919469471896118
0.009197983888456577
0.009201874851445628
0.009206370876285853
0.00921147640473214
0.00946082292738746
0.00945585150980478
0.009451474204886907
0.009447687077506473
0.009444486737869275
0.00944187062503229
0.009439837025279103
0.009438384926375085
0.009437513810239629
0.009437223457229355
0.009437513810240213
0.009438384926376256
0.009439837025280867
0.009441870625034652
0.009444486737872248
0.00944768707751008
0.009451474204891142
0.009455851509809664
0.009460822927392979
0.009710199980980255
0.009705356948123104
0.009701093016759645
0.009697404626787084
0.009694288341934792
0.0096917414256898
0.009689761948440012
0.009688348687056756
0.009687500949596644
0.009687218402649973
0.009687500949596911
0.009688348687057305
0.009689761948440819
0.009691741425690896
0.00969428834193618
0.009697404626788801
0.00970109301676168
0.009705356948125476
0.009710199980982957
