# vtk DataFile Version 2.0
mesh vtk view
ASCII
DATASET UNSTRUCTURED_GRID
POINTS 861 double
0.0 0.0 0.0
365.00199654808233 -2.6408746798651825 0.0
365.0019965480826 202.64087467986485 0.0
0.0 200.0 0.0
8.756718951798577 -0.8262178983571491 0.0
17.807953083461243 -1.3006081564410947 0.0
26.95003013198828 -1.6568375892083862 0.0
36.12290902204515 -1.9201640041997239 0.0
45.307366836253145 -2.119819806698718 0.0
54.49417701992757 -2.2713425984270734 0.0
63.67867367010443 -2.385995383479483 0.0
72.85838021254095 -2.4720161402519474 0.0
82.03208503249323 -2.5357488778790582 0.0
91.19933878629763 -2.582168922910327 0.0
100.3601659255284 -2.615223162573822 0.0
109.51488204469919 -2.6380536197074336 0.0
118.66397309610367 -2.653158644142454 0.0
127.8080132454466 -2.662515344918694 0.0
136.94760870451282 -2.6676766860331975 0.0
146.0833598342796 -2.6698506092310876 0.0
155.21583646160164 -2.669965528323498 0.0
164.34556285018533 -2.6687249022074466 0.0
173.47300969711895 -2.6666527218582967 0.0
182.5985911577761 -2.6641312737072296 0.0
191.72266536512876 -2.661432277855916 0.0
200.8455372677723 -2.6587423401715613 0.0
209.96746289605593 -2.6561835473967657 0.0
219.08865439459663 -2.6538299461289765 0.0
228.20928534248145 -2.651720566998397 0.0
237.32949602705435 -2.649869579637657 0.0
246.44939844918798 -2.6482740910197284 0.0
255.5690809234064 -2.646920030025195 0.0
264.6886121988309 -2.645786495759231 0.0
273.8080450715699 -2.6448488871771514 0.0
282.92741948959963 -2.6440810777383428 0.0
292.0467651695076 -2.643456851585755 0.0
301.16610375329697 -2.642950777574235 0.0
310.28545053353224 -2.6425386651675535 0.0
319.40481576578054 -2.642197724173452 0.0
328.52420556509173 -2.6419065456603668 0.0
337.6436223400798 -2.6416450576832404 0.0
346.76306464955144 -2.6413947668199658 0.0
355.8825263732221 -2.6411401695531493 0.0
365.001726364107 7.623283032650651 0.0
365.00144543327207 17.887432576446276 0.0
365.00116024237565 28.15156402429138 0.0
365.0008844585157 38.4156731715527 0.0
365.0006315281451 48.67976055421031 0.0
365.0004124439475 58.94382930961378 0.0
365.0002352953219 69.20788360609912 0.0
365.00010553855446 79.47192767798295 0.0
365.00002652024216 89.7359653593283 0.0
365.0 99.99999999963792 0.0
365.00002652024216 110.26403463994752 0.0
365.00010553855446 120.52807232129294 0.0
365.000235295322 130.7921163931961 0.0
365.0004124439476 141.05617068976625 0.0
365.0006315281453 151.32023944527924 0.0
365.0008844585159 161.58432682804616 0.0
365.0011602423758 171.84843597541686 0.0
365.00144543327224 182.11256742336226 0.0
365.0017263641072 192.37671696725133 0.0
355.8825263733371 202.64114016955287 0.0
346.7630646497811 202.6413947668197 0.0
337.64362234042414 202.641645057683 0.0
328.52420556555074 202.6419065456602 0.0
319.4048157663542 202.6421977241733 0.0
310.28545053422056 202.64253866516742 0.0
301.16610375409994 202.64295077757413 0.0
292.04676517042515 202.64345685158563 0.0
282.9274194906319 202.6440810777382 0.0
273.80804507271677 202.64484888717703 0.0
264.6886122000925 202.6457864957591 0.0
255.56908092478275 202.64692003002503 0.0
246.44939845067893 202.64827409101954 0.0
237.32949602866 202.6498695796374 0.0
228.20928534414114 202.6517205669981 0.0
219.08865439624142 202.65382994612867 0.0
209.96746289768583 202.6561835473964 0.0
200.84553726938742 202.6587423401712 0.0
191.7226653667291 202.66143227785554 0.0
182.59859115936183 202.6641312737069 0.0
173.47300969869 202.66665272185801 0.0
164.34556285174173 202.66872490220726 0.0
155.21583646314346 202.6699655283235 0.0
146.08335983580713 202.6698506092314 0.0
136.94760870602593 202.66767668603393 0.0
127.80801324691093 202.66251534491997 0.0
118.66397309748875 202.6531586441444 0.0
109.51488204598375 202.6380536197102 0.0
100.36016592670123 202.6152231625775 0.0
91.1993387873586 202.582168922915 0.0
82.03208503344219 202.53574887788483 0.0
72.8583802133777 202.47201614025883 0.0
63.67867367082881 202.38599538348745 0.0
54.49417702053931 202.271342598436 0.0
45.30736683675325 202.11981980670836 0.0
36.12290902244704 201.92016400420997 0.0
26.95003013229286 201.65683758921884 0.0
17.807953083663897 201.3006081564506 0.0
8.756718951895909 200.826217898364 0.0
0.0 190.0000000000711 0.0
0.0 180.0000000001421 0.0
0.0 170.0000000002132 0.0
0.0 160.0000000002842 0.0
0.0 150.0000000003553 0.0
0.0 140.0000000004263 0.0
0.0 130.0000000004974 0.0
0.0 120.0000000005163 0.0
0.0 110.0000000005163 0.0
0.0 100.0000000005163 0.0
0.0 90.00000000051627 0.0
0.0 80.00000000051628 0.0
0.0 70.00000000049741 0.0
0.0 60.00000000042633 0.0
0.0 50.0000000003553 0.0
0.0 40.00000000028422 0.0
0.0 30.00000000021316 0.0
0.0 20.00000000014211 0.0
0.0 10.00000000007105 0.0
9.100596673500258 9.458662330651041 0.0
9.169498803823101 19.58835728133926 0.0
9.202468868368332 29.671852369799883 0.0
9.218508020305512 39.73621090868626 0.0
9.227573440521814 49.79013689937947 0.0
9.23293907795907 59.83774105743211 0.0
9.236204954453697 69.88126836547559 0.0
9.2381535081501 79.9221603130373 0.0
9.239192389815157 89.96145751504028 0.0
9.2395189387515 100.0000000004965 0.0
9.23919238982526 110.03854248595277 0.0
9.238153508170287 120.07783968795592 0.0
9.236204954483942 130.1187316354816 0.0
9.232939077999358 140.16225894338862 0.0
9.227573440572087 150.2098631013056 0.0
9.218508020365675 160.26378909186315 0.0
9.202468868438189 170.32814763061435 0.0
9.169498803902357 180.41164271893973 0.0
9.100596673587784 190.54133766949317 0.0
18.13211773103538 8.956619929400532 0.0
18.29237790736004 19.182201461084745 0.0
18.363120945723672 29.345345158755553 0.0
18.401535148078764 39.473879540304694 0.0
18.42370013377952 49.58189650107469 0.0
18.437251896210277 59.67704719717506 0.0
18.44568849906452 69.76384846746286 0.0
18.45082032186094 79.84525183156329 0.0
18.45359339282173 89.92339582992642 0.0
18.454471246385612 100.00000000047642 0.0
18.453593392842098 110.07660417102663 0.0
18.450820321901617 120.15474816939023 0.0
18.44568849912546 130.23615153345634 0.0
18.437251896291446 140.3229528036133 0.0
18.423700133880796 150.41810349958433 0.0
18.401535148199933 160.52612046022537 0.0
18.363120945864406 170.65465484164582 0.0
18.29237790751977 180.8177985391877 0.0
18.13211773121408 191.0433800707415 0.0
27.215691299420588 8.5985484993488 0.0
27.391339974797507 18.841918272335878 0.0
27.494645096768927 29.053752917666603 0.0
27.554742175207853 39.232395332551626 0.0
27.591715394836317 49.38721982785292 0.0
27.61511159532978 59.525540190866245 0.0
27.63005885757107 69.65259782006177 0.0
27.639311372147144 79.77217744003259 0.0
27.644368571251555 89.88717780304569 0.0
27.64597848522565 100.00000000045618 0.0
27.644368571281795 110.11282219786695 0.0
27.63931137220757 120.22782256088063 0.0
27.630058857661588 130.34740218081876 0.0
27.61511159545035 140.47445980988894 0.0
27.59171539498678 150.61278017277922 0.0
27.55474217538799 160.7676046679577 0.0
27.49464509697843 170.94624708272002 0.0
27.39133997503636 181.1580817279268 0.0
27.21569129969028 191.4014515007881 0.0
36.33515319639911 8.330267062620358 0.0
36.49910985442294 18.580206348158864 0.0
36.61288683985846 28.81369761410573 0.0
36.688224902687715 39.02501888455443 0.0
36.737816140325805 49.21554756063638 0.0
36.77072705133645 59.38971184838903 0.0
36.792406262858286 69.55182194289145 0.0
36.80610426520919 79.70556464296718 0.0
36.81368579879377 89.85404961498223 0.0
36.81611390193647 100.00000000043568 0.0
36.81368579883346 110.14595038588938 0.0
36.80610426528847 120.29443535790514 0.0
36.792406262977075 130.44817805794955 0.0
36.77072705149475 140.61028815233215 0.0
36.73781614052346 150.78445243996768 0.0
36.68822490292459 160.9749811159326 0.0
36.612886840134585 171.18630238626406 0.0
36.499109854738855 181.41979365209227 0.0
36.335153196756615 191.66973293751028 0.0
45.475281261669444 8.128811420536207 0.0
45.61871829903798 18.380568689284654 0.0
45.72994507409519 28.625050154453742 0.0
45.81127942537846 38.8558901909327 0.0
45.86900653807861 49.071551028825546 0.0
45.909284717298476 59.27348523022747 0.0
45.93675697145591 69.46441803235017 0.0
45.95451867087232 79.64729028746723 0.0
45.96448922282449 89.8249290595288 0.0
45.96770394071211 100.00000000041484 0.0
45.96448922287375 110.17507094130107 0.0
45.954518670970735 120.35270971336347 0.0
45.93675697160342 130.53558196845051 0.0
45.9092847174951 140.72651477045864 0.0
45.8690065383243 150.9284489717494 0.0
45.81127942567328 161.14410980953093 0.0
45.72994507443942 171.37494984589827 0.0
45.61871829943246 181.6194313109541 0.0
45.47528126211574 191.87118857958777 0.0
54.62607002550702 7.976877061095932 0.0
54.74757289087872 18.22960643291416 0.0
54.84965072518596 28.47996228858804 0.0
54.930205304591496 38.72275638896621 0.0
54.99115725207527 48.95548329639043 0.0
55.03581861901232 59.1779923959385 0.0
55.06736135250986 69.39158535027234 0.0
55.08824843206383 79.59826713673381 0.0
55.10014884754368 89.80029754301309 0.0
55.10401323187046 100.00000000039373 0.0
55.10014884760389 110.1997024577745 0.0
55.08824843218415 120.40173286405444 0.0
55.06736135269025 130.6084146504872 0.0
55.035818619252936 140.82200760471193 0.0
54.99115725237616 151.04451670415457 0.0
54.930205304952835 161.27724361147327 0.0
54.84965072560823 171.5200377117457 0.0
54.74757289136279 181.770393567312 0.0
54.62607002605423 192.0231229390213 0.0
63.78143520170257 7.86278786175059 0.0
63.882303165024815 18.11635027429668 0.0
63.97252990426408 28.37024751273953 0.0
64.04810783071476 38.62056977438193 0.0
64.1083847377787 48.86485575903577 0.0
64.15448596857435 59.10222455170107 0.0
64.18812321293417 69.3330484172817 0.0
64.21091527471927 79.5585034312751 0.0
64.22409229552895 89.78020956462235 0.0
64.22840163704006 100.00000000037222 0.0
64.22409229560023 110.21979043612241 0.0
64.21091527486185 120.44149656947026 0.0
64.18812321314799 130.6669515834362 0.0
64.1544859688596 140.89777544891294 0.0
64.10838473813558 151.13514424147877 0.0
64.04810783114358 161.37943022603292 0.0
[...]
POINT_DATA 861
SCALARS CellEntityIds float 1
LOOKUP_TABLE default
0.0
0.009964891831447184
0.009964891831447099
0.0
0.00042382972050872806
0.0007236710356467099
0.0009854703565116841
0.0012283896847549362
0.001461967302239163
0.0016910088728364536
0.001918346200216671
0.0021456860107989745
0.0023740505011092643
0.0026040185186886884
0.002835876039557586
0.0030697156160739156
0.003305504667022537
0.0035431331711754687
0.0037824470547896953
0.0040232713338595955
0.004265425810118978
0.004508735338893786
0.004753036163806207
0.004998179440148089
0.00524403279076665
0.005490480526065825
0.005737422995948966
0.00598477541503776
0.006232466405344008
0.00648043642666661
0.006728636209485063
0.006977025264115874
0.0072255705101735065
0.007474245049389737
0.00772302709057401
0.007971899026372794
0.008220846656416047
0.008469858549779961
0.008718925541422867
0.008968040363312465
0.009217197423997481
0.009466392773175713
0.009715624297686609
0.009959605885429339
0.009954885379875643
0.009950729376614623
0.009947134644622732
0.009944097828547143
0.00994161615320939
0.009939687591630565
0.009938310805616362
0.009937485000302991
0.00993720977230258
0.009937485000302946
0.009938310805616274
0.009939687591630424
0.009941616153209218
0.009944097828546956
0.009947134644622553
0.009950729376614453
0.0099548853798755
0.009959605885429228
0.00971562429768966
0.009466392773181894
0.009217197424006798
0.008968040363324914
0.008718925541438454
0.008469858549798677
0.008220846656437885
0.007971899026397758
0.0077230270906021034
0.007474245049420953
0.0072255705102078375
0.0069770252641533186
0.006728636209525613
0.0064804364267102505
0.0062324664053890755
0.0059847754150823725
0.00573742299599312
0.005490480526109506
0.005244032790809833
0.004998179440190762
0.004753036163848345
0.004508735338935366
0.004265425810159981
0.004023271333900006
0.003782447054829479
0.0035431331712137
0.0033055046670584128
0.003069715616106911
0.002835876039587447
0.00260401851871546
0.0023740505011330135
0.002145686010819779
0.0019183462002346275
0.0016910088728516667
0.0014619673022517707
0.0012283896847653892
0.0009854703565201175
0.0007236710356530797
0.00042382972051285047
0.0
0.0
0.0
0.0
0.0
0.0
0.0
0.0
0.0
0.0
0.0
0.0
0.0
0.0
0.0
0.0
0.0
0.0
0.0
0.00029804500929811456
0.0002631715809855311
0.0002448533447978258
0.00023418077825865642
0.00022725779937114826
0.00022260335308516154
0.00021946139023788772
0.00021742975609004983
0.000216285717310558
0.00021591599524708923
0.00021628571731087452
0.0002174297560906929
0.00021946139023887112
0.00022260335308647657
0.00022725779937281533
0.0002341807782607117
0.0002448533448003408
0.0002631715809886216
0.0002980450093021277
0.0006074584445566385
0.0005375599687097838
0.0005005334955026646
0.0004777875230220723
0.0004630192077631434
0.0004530713088113361
0.0004463649207567584
0.00044203247926635124
0.0004395945663234055
0.0004388069552598632
0.0004395945663240631
0.00044203247926768633
0.0004463649207587996
0.00045307130881406865
0.0004630192077666094
0.00047778752302634323
0.0005005334955078482
0.0005375599687160274
0.0006074584445637579
0.0008850137699087522
0.0008103554514172678
0.000760365156955546
0.0007276618506666484
0.0007055481365702457
0.0006903879217352013
0.0006800651890718651
0.0006733613375250819
0.0006695781868602238
0.0006683544457511811
0.0006695781868612242
0.0006733613375271117
0.0006800651890749621
0.0006903879217393374
0.0007055481365754676
0.0007276618506730177
0.0007603651569631159
0.0008103554514259444
0.0008850137699179111
0.0011434309026810635
0.001072604288820785
0.0010189474755089778
0.0009801807424081367
0.0009526026409723819
0.000933085559907999
0.0009195476630077351
0.0009106568527568866
0.0009056077686693798
0.0009039698299492537
0.0009056077686707115
0.0009106568527595822
0.0009195476630118342
0.0009330855599134481
0.0009526026409792045
0.0009801807424163402
0.0010189474755184932
0.0010726042888313202
0.0011434309026919765
0.0013901783658994704
0.0013261899864439892
0.0012736556178035458
0.0012328277321015878
0.0012021308165474716
0.0011796118919184095
0.0011636157338825361
0.001152951394428266
0.0011468410316281346
0.0011448506230285133
0.001146841031629789
0.001152951394431608
0.0011636157338875944
0.001179611891925096
0.0012021308165557716
0.0012328277321114376
0.0012736556178147762
0.0013261899864562444
0.0013901783659121928
0.0016303094485324242
0.0015737044127123508
0.0015246442936450956
0.001484394563041004
0.0014527044268625633
0.0014286239118215464
0.0014110892836305207
0.0013992025978578012
0.0013923220757160423
0.001390069930235667
0.0013923220757180407
0.0013992025978618254
0.0014110892836365805
0.001428623911829525
0.0014527044268723985
0.0014843945630525746
0.0015246442936581819
0.001573704412726594
0.0016303094485473654
0.0018669398950321133
0.0018174080791983516
0.001772774417457033
0.0017346541151845333
0.0017035141713477207
0.001679119870907883
0.0016609393652020556
0.001648411437682567
0.0016410842076326117
0.001638673818720955
0.0016410842076349382
0.0016484114376872402
0.001660939365209067
0.0016791198709170836
0.0017035141713590124
0.001734654115197762
0.0017727744174719584
0.0018174080792146457
0.0018669398950493972
0.002102051006676435
0.0020589560954454625
0.0020189823229880294
0.0019837882379662875
0.001954195578046356
0.0019304225975681293
0.0019123438775481769
0.0018996994982095386
0.0018922322317179291
0.0018897640641781703
0.0018922322317205683
0.0018996994982148254
0.0019123438775560863
0.0019304225975784897
0.001954195578059052
0.00198378823798114
0.0020189823230048055
0.0020589560954638684
0.0021020510066961594
0.002336894592222741
0.0022995021335763203
0.0022640493333435153
0.002232102702160072
0.0022046274354682502
0.0021821034664037614
0.002164683843163263
0.002152343655518733
0.002144993614800577
0.002142553847717009
0.002144993614803515
0.002152343655524607
0.002164683843172032
0.0021821034664152466
0.002204627435482321
0.00223210270217655
0.0022640493333621766
0.0022995021335969084
0.002336894592244999
0.002572244696436904
0.0025398193472170026
0.002508563658416488
0.002479895437361283
0.00245480389689648
0.002433900804040788
0.002417512422743422
0.0024057789743143444
0.00239873981823861
0.002396394750899736
0.002398739818241836
0.002405778974320786
0.002417512422753028
0.0024339008040533752
0.002454803896911918
0.0024798954373793976
0.0025085636584370767
0.002539819347239841
0.00257224469646178
0.0028085550762726908
0.0027804047941154836
0.0027529397395243257
0.002727410304019443
0.0027047637344983803
0.002685659297477712
0.0026705176936695748
0.002659583664783389
0.002652985359759464
0.0026507805717114275
0.00265298535976297
0.0026595836647903886
0.0026705176936800057
0.0026856592974913965
0.002704763734515195
0.0027274103040392235
0.0027529397395468854
0.0027804047941406324
0.002808555076300248
0.0030460638001660535
0.003021559122014823
0.0029974530991671014
0.002974828573430767
0.0029545562659464087
0.002937290058533298
0.002923489550942957
0.0029134565215017056
0.002907373499643366
0.0029053360115557404
0.002907373499647152
0.0029134565215092516
0.002923489550954203
0.002937290058548084
0.002954556265964612
0.0029748285734522376
0.0029974530991916763
0.0030215591220423286
0.003046063800196348
0.0032848648082202526
0.003263445808824315
0.003242274628269319
0.003222275607826105
0.003204227053895613
0.003188745822777941
0.003176293149724418
0.0031671931622624504
0.0031616558143095458
0.0031597976345559766
0.0031616558143135716
0.003167193162270483
0.0031762931497363936
0.0031887458227937136
0.003204227053915072
0.0032222756078491128
0.0032422746282957274
0.0032634458088539823
0.0032848648082530606
0.003524957839960163
0.0035061345819560894
0.0034874995718526766
0.0034698320963561843
0.0034538133590357525
0.003440005740535639
0.003428848463372476
0.0034206641444992658
0.0034156705262709053
0.003413992459937053
0.0034156705262751177
0.003420664144507667
0.0034288484633850096
0.0034400057405521785
0.003453813359056194
0.0034698320963804058
0.0034874995718805536
0.003506134581987498
0.0035249578399950063
0.003766283518356581
0.0037496329571954814
0.0037331703855583574
0.003717545323038559
0.003703343880164191
0.003691065904291025
0.003681114760064137
0.0036737961873001533
0.0036693223385425976
0.0036678174418834546
0.0036693223385469136
0.003673796187308766
0.00368111476007699
0.0036910659043080077
0.003703343880185207
0.0037175453230635152
0.0037331703855871486
0.0037496329572279967
0.0037662835183927437
0.004008747945004664
0.003993908915855898
0.003979294046285558
0.0039654387838035186
0.00395284005561047
0.003941933239528319
0.00393307886224158
0.00392655675456804
0.0039225650409556315
0.003921221464676699
0.0039225650409599605
0.003926556754576677
0.00393307886225447
0.003941933239545371
0.003952840055631615
0.003965438783828667
0.003979294046314624
0.003993908915888791
0.004008747945041328
0.004252239749379908
0.004238906999139846
0.004225854788831231
0.004213519760456328
0.004202317680804765
0.004192621399688123
0.004184746295308976
0.004178941795881813
0.0041753872491033855
0.004174190427105085
0.00417538724910772
0.004178941795890471
0.004184746295321922
0.004192621399705271
0.004202317680826049
0.0042135197604816765
0.0042258547888605795
0.004238906999173116
0.004252239749417058
0.004496641666733286
0.00448455953373622
0.004472823249222913
0.004461784994213365
0.004451788349634486
0.004443147911031762
0.004436134658576513
0.004430966251713432
0.004427801145854897
0.0044267353915140185
0.004427801145859243
0.004430966251722133
0.004436134658589523
0.0044431479110490085
0.004451788349655924
0.0044617849942389255
0.004472823249252549
0.0044845595337698755
0.004496641666770907
0.00474183814891283
0.0047307942790146
0.004720162870133626
0.004710224783243314
0.0047012605815617906
0.004693532148998522
0.004687268719188348
0.004682656877308539
0.004679833867944737
0.004678883479933741
0.004679833867949111
0.00468265687731728
0.004687268719201426
0.00469353214901588
0.004701260581583382
0.0047102247832691
0.004720162870163553
0.0047307942790486245
0.004741838148950916
0.004987720117522516
0.0049775394669224335
0.004967834266177598
0.004958825852391367
0.0049507406455720155
0.0049437939047669325
0.004938176846825036
0.004934046954073585
0.004931521105138563
0.0049306710897983365
0.004931521105142957
0.004934046954082375
0.004938176846838192
0.0049437939047844125
0.004950740645593776
0.0049588258524173754
0.0049678342662078144
0.0049775394669568235
0.004987720117561047
0.00523418768401446
0.00522472696376591
0.005215798096929694
0.0052075733038066795
0.005200233141673299
0.005193952391577075
0.005188888489424664
0.005185172501721729
0.005182902484993314
0.005182138991320476
0.005182902484997733
0.005185172501730574
0.005188888489437899
0.005193952391594679
0.00520023314169524
0.005207573303832916
0.005215798096960198
0.005224726963800664
0.00523418768405343
0.005481151450183313
0.0054722940990300575
0.005464016867128269
0.005456451899033773
0.005449741406330241
0.005444025587115604
0.00543943245083222
0.005436069659339682
0.00543401835938746
0.005433328906220446
0.005434018359391909
0.005436069659348588
0.0054394324508455485
0.005444025587133335
0.005449741406352355
0.005456451899060242
0.0054640168671590715
0.005472294099065161
0.005481151450222707
0.005728532843502261
0.005720184566290964
0.005712455969428157
0.005705446865847577
0.005699267797434457
0.005694029833724435
0.00568983577824759
0.005686772959064479
0.005684907665817638
0.005684281223991654
0.005684907665822122
0.005686772959073444
0.005689835778261022
0.005694029833742305
0.005699267797456753
0.005705446865874276
0.005712455969459253
0.00572018456632642
0.0057285328435420675
0.0059762638210775825
0.005968348694775678
0.005961084203396983
0.005954544374101519
0.0059488138999044945
0.005943979633891054
0.005940123105190793
0.005937314267428646
0.005935606594440655
0.005935033571755363
0.005935606594445171
0.005937314267437677
0.005940123105204324
0.005943979633909069
0.005948813899926978
0.00595454437412846
0.005961084203428356
0.005968348694811478
0.005976263821117788
0.006224286184356343
0.0062167433094463724
0.006209873941742884
0.0062037317858147974
0.006198380679937554
0.006193887589819883
0.0061903163269322655
0.006187722214638447
0.006186147845068409
0.00618562000956633
0.006186147845072958
0.006187722214647548
0.006190316326945895
0.006193887589838042
0.006198380679960224
0.00620373178584197
0.0062098739417745475
0.00621674330948251
0.006224286184396953
0.006472550677364559
0.006465331336658499
0.006458801067356154
0.006452997754912759
0.00644796860587038
0.006443764445172959
0.006440434511321887
0.006438021970564907
0.006436560304482166
0.0064360706717448155
0.0064365603044865575
0.0064380219705736964
0.006440434511335059
0.006443764445190502
0.006447968605892293
0.006452997754939035
0.006458801067386788
0.006465331336693476
0.006472550677403873
0.006721015989117418
0.006714081266853193
0.006707844769314389
0.006702332229879014
0.006697577746535985
0.00669361919514729
0.006690493969524026
0.006688235258281324
0.006686869013072353
0.006686411715690371
0.006686869013076418
0.006688235258289473
0.006690493969536242
0.006693619195163566
0.006697577746556315
0.006702332229903398
0.006707844769342837
0.0067140812668856804
0.0067210159891539405
0.0069696477420525
0.0069629665518373685
0.006956987259772127
0.006951726396414365
0.006947207853368828
0.0069434592381650735
0.0069405084289266335
0.006938380522170721
0.006937095321379788
0.0069366654730474726
0.006937095321383548
0.006938380522178236
0.0069405084289378876
0.006943459238180075
0.006947207853387575
0.0069517263964368635
0.006956987259798376
0.006962966551867352
0.006969647742086226
0.007218417519827693
0.007211964989190602
0.007206213454374362
0.007201172585526705
0.007196858429627794
0.007193290548604218
0.007190489264925574
0.007188473188681756
0.007187257162431906
0.007186850724880778
0.007187257162435348
0.007188473188688627
0.007190489264935881
0.007193290548617956
0.007196858429644973
0.007201172585547307
0.007206213454398412
0.0072119649892180785
0.007218417519858607
0.007467301967237194
0.00746105812808788
0.007455510644761318
0.007450664164102603
0.007446528788397835
0.007443117855193905
0.007440445759851361
0.007438525974496362
0.007437369385759729
0.007436983043652874
0.007437369385762857
0.007438525974502595
0.0074404457598607095
0.007443117855206373
0.007446528788413426
0.007450664164121322
0.0074555106447831655
0.007461058128112857
0.007467301967265287
0.0077162819804774225
0.007710230717679446
0.007704868181510963
0.007700195419004815
0.007696218100055451
0.007692944813976664
0.007690385366438172
0.007688549209910593
0.007687444114543856
0.007687075161231395
0.007687444114546664
0.007688549209916189
0.007690385366446574
0.0076929448139878695
0.007696218100069466
0.007700195419021641
0.00770486818153061
0.007710230717701905
0.007716281980502691
0.007965341996076682
0.007959470209796819
0.007954277178422503
0.00794976144138727
0.007945925429337723
0.007942774168181638
0.007940313960345951
0.00793855115527215
0.007937491099267063
0.007937137334733236
0.007937491099269544
0.007938551155277114
0.007940313960353402
0.00794277416819158
0.007945925429350163
0.007949761441402218
0.007954277178439956
0.007959470209816768
0.007965341996099131
0.008214469380378049
0.00820876632109991
0.008203730243550847
0.008199358014742262
0.008195649761911552
0.008192607890128416
0.00819023607172767
0.008188538295928924
0.008187518050223325
0.00818717769145451
0.008187518050225492
0.008188538295933254
0.008190236071734172
0.0081926078901371
0.008195649761922427
0.00819935801475532
0.008203730243566095
0.00820876632111735
0.008214469380397686
0.008463653917626272
0.00845811065488907
0.008453221238207851
0.008448981507949592
0.008445390020450068
0.008442447302598128
0.008440155090011352
0.008438515606760637
0.008437530937783289
0.008437202541010262
0.008437530937785145
0.008438515606764339
0.008440155090016912
0.008442447302605547
0.008445390020459369
0.008448981507960767
0.008453221238220903
0.008458110654904004
0.00846365391764309
0.008712887392593302
0.008707496378724902
0.008702745061915568
0.008698628773469674
0.008695145070954608
0.00869229317913077
0.008690073439090354
0.008688486781264932
0.008687534253865816
0.008687216647600951
0.008687534253867354
0.008688486781268006
0.008690073439094963
0.00869229317913694
0.00869514507096233
0.00869862877347895
0.008702745061926415
0.00870749637873732
0.008712887392607293
0.008962163262001641
0.00895691794980288
0.008952297459656519
0.008948297051809192
0.008944913721714636
0.008942145824162565
0.00893999272172362
0.008938454422448491
0.008937531231028832
0.008937223458565296
0.008937531231030058
0.00893845442245093
0.008939992721727286
0.008942145824167462
0.00894491372172078
0.008948297051816574
0.008952297459665167
0.00895691794981279
0.008962163262012818
0.009211476404723792
0.009206370876278458
0.00920187485143919
0.009197983888451083
0.009194694718956627
0.009192005133042894
0.009189913831302179
0.009188420193528477
0.009187524017651093
0.009187225287939853
0.009187524017651993
0.009188420193530285
0.009189913831304899
0.009192005133046521
0.00919469471896118
0.009197983888456577
0.009201874851445628
0.009206370876285853
0.00921147640473214
0.00946082292738746
0.00945585150980478
0.009451474204886907
0.009447687077506473
0.009444486737869275
0.00944187062503229
0.009439837025279103
0.009438384926375085
0.009437513810239629
0.009437223457229355
0.009437513810240213
0.009438384926376256
0.009439837025280867
0.009441870625034652
0.009444486737872248
0.00944768707751008
0.009451474204891142
0.009455851509809664
0.009460822927392979
0.009710199980980255
0.009705356948123104
0.009701093016759645
0.009697404626787084
0.009694288341934792
0.0096917414256898
0.009689761948440012
0.009688348687056756
0.009687500949596644
0.009687218402649973
0.009687500949596911
0.009688348687057305
0.009689761948440819
0.009691741425690896
0.00969428834193618
0.009697404626788801
0.00970109301676168
0.009705356948125476
0.009710199980982957
