# vtk DataFile Version 2.0
mesh vtk view
ASCII
DATASET UNSTRUCTURED_GRID
POINTS 861 double
0.0 0.0 0.0
355.00256699039153 -3.395410302683806 0.0
355.0025669903919 203.3954103026834 0.0
0.0 200.0 0.0
8.401495795180786 -1.06228015503062 0.0
17.18165396447331 -1.6722104868528358 0.0
26.078610169733377 -2.1302197575536392 0.0
35.01516874267339 -2.4687822911139303 0.0
43.9666145038081 -2.7254826086126376 0.0
52.921084739975356 -2.920297626549094 0.0
61.87258043307472 -3.0677083501879063 0.0
70.81791741622222 -3.178306466038218 0.0
79.75553789903282 -3.260248557273074 0.0
88.68486415393903 -3.3199314723132773 0.0
97.60592761867912 -3.362429780452056 0.0
106.51913405762782 -3.3917832253381284 0.0
115.42510826658778 -3.411203971040298 0.0
124.32458845860481 -3.4232340148954634 0.0
133.21835404883745 -3.429870024899825 0.0
142.10717692997085 -3.432665069011398 0.0
150.9917897365324 -3.4328128221302117 0.0
159.87286652185898 -3.4312177314095735 0.0
168.75101246792119 -3.4285534995320956 0.0
177.62676006019936 -3.4253116376235804 0.0
186.5005697553717 -3.421841500100463 0.0
195.37283363020381 -3.418383008792007 0.0
204.24388086657314 -3.4150931323672697 0.0
213.11398422184445 -3.412067073594398 0.0
221.9833668691296 -3.4093550147122245 0.0
230.85220917786006 -3.406975173819844 0.0
239.72065514915911 -3.4049238313110792 0.0
248.58881833028147 -3.4031828957466788 0.0
257.4567871129545 -3.4017254945475823 0.0
266.324629377889 -3.4005199977991944 0.0
275.19239648676876 -3.3995328142350116 0.0
284.0601266466347 -3.3987302377531132 0.0
292.9278476829198 -3.3980795711668734 0.0
301.79557925749236 -3.3975497123582827 0.0
310.6633345560817 -3.3971113596515807 0.0
319.53112144089476 -3.396736987277614 0.0
328.3989430087209 -3.3964007884498804 0.0
337.2667974065974 -3.396078985911384 0.0
346.1346767655869 -3.395751646568334 0.0
355.00221961099476 6.944221041990978 0.0
355.00185841420694 17.283841884024312 0.0
355.00149174019725 27.623439459837442 0.0
355.00113716094876 37.96300836347397 0.0
355.00081196475804 48.30254928404858 0.0
355.00053028507534 58.642066255296434 0.0
355.00030252255675 68.98156463649988 0.0
355.00013569242714 79.32104987178377 0.0
355.0000340974542 89.66052689066103 0.0
355.0 99.99999999963522 0.0
355.0000340974542 110.33947310860938 0.0
355.0001356924272 120.67895012748671 0.0
355.0003025225568 131.0184353627901 0.0
355.0005302850755 141.35793374407896 0.0
355.0008119647582 151.69745071543716 0.0
355.001137160949 162.03699163612188 0.0
355.0014917401975 172.3765605398686 0.0
355.00185841420716 182.71615811578275 0.0
355.002219610995 193.05577895791018 0.0
346.1346767656988 203.395751646568 0.0
337.26679740682084 203.39607898591106 0.0
328.39894300905587 203.3964007884496 0.0
319.53112144134116 203.39673698727736 0.0
310.6633345566396 203.39711135965138 0.0
301.7955792581618 203.3975497123581 0.0
292.92784768370063 203.39807957116673 0.0
284.06012664752706 203.39873023775294 0.0
275.1923964877726 203.39953281423485 0.0
266.32462937900425 203.40051999779902 0.0
257.45678711418134 203.4017254945474 0.0
248.5888183316199 203.40318289574648 0.0
239.720655150609 203.40492383131084 0.0
230.8522091794215 203.40697517381952 0.0
221.9833668707436 203.40935501471185 0.0
213.11398422344396 203.412067073594 0.0
204.24388086815821 203.41509313236682 0.0
195.37283363177454 203.41838300879152 0.0
186.50056975692814 203.4218415001 0.0
177.62676006174163 203.42531163762314 0.0
168.75101246944928 203.42855349953172 0.0
159.87286652337292 203.43121773140936 0.0
150.9917897380323 203.43281282213024 0.0
142.107176931457 203.4326650690118 0.0
133.21835405030976 203.42987002490077 0.0
124.32458846002983 203.42323401489708 0.0
115.42510826793591 203.41120397104282 0.0
106.51913405887834 203.3917832253417 0.0
97.60592761982109 203.36242978045678 0.0
88.68486415497232 203.3199314723193 0.0
79.75553789995723 203.2602485572805 0.0
70.81791741703749 203.17830646604708 0.0
61.87258043378065 203.06770835019816 0.0
52.921084740571594 202.92029762656057 0.0
43.966614504295535 202.72548260862504 0.0
35.01516874306499 202.4687822911271 0.0
26.07861017002992 202.13021975756706 0.0
17.18165396467012 201.67221048686508 0.0
8.401495795274439 201.06228015503945 0.0
0.0 190.0000000000711 0.0
0.0 180.0000000001421 0.0
0.0 170.0000000002132 0.0
0.0 160.0000000002842 0.0
0.0 150.0000000003553 0.0
0.0 140.0000000004263 0.0
0.0 130.0000000004974 0.0
0.0 120.0000000005163 0.0
0.0 110.0000000005163 0.0
0.0 100.0000000005163 0.0
0.0 90.00000000051627 0.0
0.0 80.00000000051628 0.0
0.0 70.00000000049741 0.0
0.0 60.00000000042633 0.0
0.0 50.0000000003553 0.0
0.0 40.00000000028422 0.0
0.0 30.00000000021316 0.0
0.0 20.00000000014211 0.0
0.0 10.00000000007105 0.0
8.843624294509944 9.303994425103262 0.0
8.932212747780596 19.470745075968576 0.0
8.974602830765747 29.578095903969896 0.0
8.995224597540547 39.66084259680438 0.0
9.006880137817076 49.730176013390505 0.0
9.013778814520546 59.79138135943878 0.0
9.017977798583491 69.84734504118937 0.0
9.020483081905862 79.899920402335 0.0
9.02181878690222 89.95044537633895 0.0
9.022238635533087 100.00000000049704 0.0
9.021818786912059 110.04955462465522 0.0
9.020483081925521 120.1000795986594 0.0
9.01797779861293 130.15265495976908 0.0
9.01377881455975 140.20861864138323 0.0
9.006880137865968 150.26982398729587 0.0
8.995224597599009 160.33915740374644 0.0
8.974602830833522 170.42190409644593 0.0
8.932212747857308 180.52925492431228 0.0
8.84362429459414 190.69600557504324 0.0
17.598437082779725 8.658511337781976 0.0
17.804485880908246 18.948544735642912 0.0
17.895441215944015 29.158300918343848 0.0
17.944830904683087 39.32355940888849 0.0
17.973328743438017 49.462438358431356 0.0
17.990752437988657 59.584774967684716 0.0
18.00159949879807 69.696376600893 0.0
18.008197556675995 79.80103806901725 0.0
18.011762933622396 89.90150892405578 0.0
18.012891602487056 100.00000000047746 0.0
18.011762933642206 110.09849107689939 0.0
18.008197556715544 120.19896193193853 0.0
18.001599498857296 130.30362340002858 0.0
17.990752438067524 140.41522503310608 0.0
17.973328743536353 150.5375616422302 0.0
17.944830904800632 160.6764405916443 0.0
17.89544121608034 170.84169908206056 0.0
17.804485881062618 181.0514552646329 0.0
17.598437082952117 191.34148866236347 0.0
26.420174527855877 8.198133784859117 0.0
26.64600853905002 18.511037778681644 0.0
26.778829410151374 28.783396608374726 0.0
26.856097082425244 39.01307971320923 0.0
26.903634079085656 49.21213977857893 0.0
26.93371490828678 59.38998024529269 0.0
26.952932816877976 69.55334005424018 0.0
26.96482890704246 79.7070852799123 0.0
26.971331020171952 89.85494288950093 0.0
26.973400909562464 100.00000000045765 0.0
26.971331020201326 110.14505711141467 0.0
26.96482890710114 120.29291472100407 0.0
26.952932816965838 130.44665994664373 0.0
26.933714908403783 140.61001975546586 0.0
26.903634079231583 150.78786022205668 0.0
26.85609708259981 160.98692028730375 0.0
26.77882941035419 171.21660339201577 0.0
26.646008539281063 181.48896222158496 0.0
26.420174528117066 191.8018662152814 0.0
35.288054109693654 7.853200509066202 0.0
35.49885552714661 18.174551019027053 0.0
35.64514022270031 28.474754075227413 0.0
35.74200344633166 38.7464528515018 0.0
35.80576360900295 48.9914182921618 0.0
35.848077637438955 59.215343804969855 0.0
35.87595090938934 69.42377106931264 0.0
35.8935626266914 79.6214402551199 0.0
35.90331031272245 89.81234950485401 0.0
35.90643215961395 100.00000000043747 0.0
35.90331031276097 110.18765049602126 0.0
35.89356262676831 120.3785597457563 0.0
35.87595090950454 130.57622893153246 0.0
35.84807763759244 140.78465619575536 0.0
35.80576360919452 151.00858170844634 0.0
35.74200344656115 161.25354714898936 0.0
35.64514022296775 171.52524592514652 0.0
35.4988555274527 181.82544898122808 0.0
35.2880541100407 192.14679949106795 0.0
44.18250447933556 7.594186112101665 0.0
44.36692352737305 17.91787402904749 0.0
44.50992938101025 28.232207341391515 0.0
44.61450211836667 38.52900167399141 0.0
44.68872269183051 48.806279894123435 0.0
44.74050892224829 59.0659095816243 0.0
44.775830391871494 69.31139461290813 0.0
44.79866686254196 79.54651608376878 0.0
44.81148614361554 89.77490879070568 0.0
44.81561935232042 100.00000000041689 0.0
44.811486143663316 110.22509121012835 0.0
44.798666862637376 120.45348391706628 0.0
44.77583039201448 130.68860538789713 0.0
44.74050892243886 140.93409041906625 0.0
44.68872269206863 151.19372010645586 0.0
44.61450211865239 161.47099832647652 0.0
44.50992938134394 171.76779265896462 0.0
44.36692352775578 182.08212597119507 0.0
44.18250447976937 192.40581388802562 0.0
53.09066146142513 7.39884193567925 0.0
53.24687943117924 17.72377969942984 0.0
53.378122360993316 28.045665799566564 0.0
53.48169253450521 38.35782964289489 0.0
53.56005932411769 48.65704995242529 0.0
53.61748108159867 58.943133080400635 0.0
53.65803602465742 69.2177525930995 0.0
53.68489084121729 79.48348631854608 0.0
53.70019137539615 89.74323969804871 0.0
53.705159869521076 100.00000000039593 0.0
53.70019137545454 110.25676030274336 0.0
53.68489084133393 120.51651368224685 0.0
53.658036024832256 130.7822474076649 0.0
53.61748108183191 141.0568669202544 0.0
53.560059324409394 151.34295004812415 0.0
53.481692534855604 161.64217035754885 0.0
53.37812236140303 171.95433420077114 0.0
53.24687943164938 182.27622030079988 0.0
53.09066146195744 192.60115806444105 0.0
62.004702402261074 7.252155822236036 0.0
62.134389783664105 17.578164638351787 0.0
62.250395591246175 27.90460394490657 0.0
62.347567210957195 38.226446852718354 0.0
62.42506609145671 48.54052883297342 0.0
62.484339102468425 58.8457172806718 0.0
62.52758698806263 69.14249082211727 0.0
62.55689106748934 79.43236155439085 0.0
62.57383295137623 89.71741229726672 0.0
62.57937353330783 100.00000000037453 0.0
62.573832951445354 110.28258770348269 0.0
62.556891067627575 120.56763844635934 0.0
62.52758698826992 130.85750917860557 0.0
62.48433910274502 141.15428271994685 0.0
62.42506609180287 151.45947116754547 0.0
[...]
POINT_DATA 861
SCALARS CellEntityIds float 1
LOOKUP_TABLE default
0.0
0.009964891831447184
0.009964891831447099
0.0
0.00042382972050872806
0.0007236710356467099
0.0009854703565116841
0.0012283896847549362
0.001461967302239163
0.0016910088728364536
0.001918346200216671
0.0021456860107989745
0.0023740505011092643
0.0026040185186886884
0.002835876039557586
0.0030697156160739156
0.003305504667022537
0.0035431331711754687
0.0037824470547896953
0.0040232713338595955
0.004265425810118978
0.004508735338893786
0.004753036163806207
0.004998179440148089
0.00524403279076665
0.005490480526065825
0.005737422995948966
0.00598477541503776
0.006232466405344008
0.00648043642666661
0.006728636209485063
0.006977025264115874
0.0072255705101735065
0.007474245049389737
0.00772302709057401
0.007971899026372794
0.008220846656416047
0.008469858549779961
0.008718925541422867
0.008968040363312465
0.009217197423997481
0.009466392773175713
0.009715624297686609
0.009959605885429339
0.009954885379875643
0.009950729376614623
0.009947134644622732
0.009944097828547143
0.00994161615320939
0.009939687591630565
0.009938310805616362
0.009937485000302991
0.00993720977230258
0.009937485000302946
0.009938310805616274
0.009939687591630424
0.009941616153209218
0.009944097828546956
0.009947134644622553
0.009950729376614453
0.0099548853798755
0.009959605885429228
0.00971562429768966
0.009466392773181894
0.009217197424006798
0.008968040363324914
0.008718925541438454
0.008469858549798677
0.008220846656437885
0.007971899026397758
0.0077230270906021034
0.007474245049420953
0.0072255705102078375
0.0069770252641533186
0.006728636209525613
0.0064804364267102505
0.0062324664053890755
0.0059847754150823725
0.00573742299599312
0.005490480526109506
0.005244032790809833
0.004998179440190762
0.004753036163848345
0.004508735338935366
0.004265425810159981
0.004023271333900006
0.003782447054829479
0.0035431331712137
0.0033055046670584128
0.003069715616106911
0.002835876039587447
0.00260401851871546
0.0023740505011330135
0.002145686010819779
0.0019183462002346275
0.0016910088728516667
0.0014619673022517707
0.0012283896847653892
0.0009854703565201175
0.0007236710356530797
0.00042382972051285047
0.0
0.0
0.0
0.0
0.0
0.0
0.0
0.0
0.0
0.0
0.0
0.0
0.0
0.0
0.0
0.0
0.0
0.0
0.0
0.00029804500929811456
0.0002631715809855311
0.0002448533447978258
0.00023418077825865642
0.00022725779937114826
0.00022260335308516154
0.00021946139023788772
0.00021742975609004983
0.000216285717310558
0.00021591599524708923
0.00021628571731087452
0.0002174297560906929
0.00021946139023887112
0.00022260335308647657
0.00022725779937281533
0.0002341807782607117
0.0002448533448003408
0.0002631715809886216
0.0002980450093021277
0.0006074584445566385
0.0005375599687097838
0.0005005334955026646
0.0004777875230220723
0.0004630192077631434
0.0004530713088113361
0.0004463649207567584
0.00044203247926635124
0.0004395945663234055
0.0004388069552598632
0.0004395945663240631
0.00044203247926768633
0.0004463649207587996
0.00045307130881406865
0.0004630192077666094
0.00047778752302634323
0.0005005334955078482
0.0005375599687160274
0.0006074584445637579
0.0008850137699087522
0.0008103554514172678
0.000760365156955546
0.0007276618506666484
0.0007055481365702457
0.0006903879217352013
0.0006800651890718651
0.0006733613375250819
0.0006695781868602238
0.0006683544457511811
0.0006695781868612242
0.0006733613375271117
0.0006800651890749621
0.0006903879217393374
0.0007055481365754676
0.0007276618506730177
0.0007603651569631159
0.0008103554514259444
0.0008850137699179111
0.0011434309026810635
0.001072604288820785
0.0010189474755089778
0.0009801807424081367
0.0009526026409723819
0.000933085559907999
0.0009195476630077351
0.0009106568527568866
0.0009056077686693798
0.0009039698299492537
0.0009056077686707115
0.0009106568527595822
0.0009195476630118342
0.0009330855599134481
0.0009526026409792045
0.0009801807424163402
0.0010189474755184932
0.0010726042888313202
0.0011434309026919765
0.0013901783658994704
0.0013261899864439892
0.0012736556178035458
0.0012328277321015878
0.0012021308165474716
0.0011796118919184095
0.0011636157338825361
0.001152951394428266
0.0011468410316281346
0.0011448506230285133
0.001146841031629789
0.001152951394431608
0.0011636157338875944
0.001179611891925096
0.0012021308165557716
0.0012328277321114376
0.0012736556178147762
0.0013261899864562444
0.0013901783659121928
0.0016303094485324242
0.0015737044127123508
0.0015246442936450956
0.001484394563041004
0.0014527044268625633
0.0014286239118215464
0.0014110892836305207
0.0013992025978578012
0.0013923220757160423
0.001390069930235667
0.0013923220757180407
0.0013992025978618254
0.0014110892836365805
0.001428623911829525
0.0014527044268723985
0.0014843945630525746
0.0015246442936581819
0.001573704412726594
0.0016303094485473654
0.0018669398950321133
0.0018174080791983516
0.001772774417457033
0.0017346541151845333
0.0017035141713477207
0.001679119870907883
0.0016609393652020556
0.001648411437682567
0.0016410842076326117
0.001638673818720955
0.0016410842076349382
0.0016484114376872402
0.001660939365209067
0.0016791198709170836
0.0017035141713590124
0.001734654115197762
0.0017727744174719584
0.0018174080792146457
0.0018669398950493972
0.002102051006676435
0.0020589560954454625
0.0020189823229880294
0.0019837882379662875
0.001954195578046356
0.0019304225975681293
0.0019123438775481769
0.0018996994982095386
0.0018922322317179291
0.0018897640641781703
0.0018922322317205683
0.0018996994982148254
0.0019123438775560863
0.0019304225975784897
0.001954195578059052
0.00198378823798114
0.0020189823230048055
0.0020589560954638684
0.0021020510066961594
0.002336894592222741
0.0022995021335763203
0.0022640493333435153
0.002232102702160072
0.0022046274354682502
0.0021821034664037614
0.002164683843163263
0.002152343655518733
0.002144993614800577
0.002142553847717009
0.002144993614803515
0.002152343655524607
0.002164683843172032
0.0021821034664152466
0.002204627435482321
0.00223210270217655
0.0022640493333621766
0.0022995021335969084
0.002336894592244999
0.002572244696436904
0.0025398193472170026
0.002508563658416488
0.002479895437361283
0.00245480389689648
0.002433900804040788
0.002417512422743422
0.0024057789743143444
0.00239873981823861
0.002396394750899736
0.002398739818241836
0.002405778974320786
0.002417512422753028
0.0024339008040533752
0.002454803896911918
0.0024798954373793976
0.0025085636584370767
0.002539819347239841
0.00257224469646178
0.0028085550762726908
0.0027804047941154836
0.0027529397395243257
0.002727410304019443
0.0027047637344983803
0.002685659297477712
0.0026705176936695748
0.002659583664783389
0.002652985359759464
0.0026507805717114275
0.00265298535976297
0.0026595836647903886
0.0026705176936800057
0.0026856592974913965
0.002704763734515195
0.0027274103040392235
0.0027529397395468854
0.0027804047941406324
0.002808555076300248
0.0030460638001660535
0.003021559122014823
0.0029974530991671014
0.002974828573430767
0.0029545562659464087
0.002937290058533298
0.002923489550942957
0.0029134565215017056
0.002907373499643366
0.0029053360115557404
0.002907373499647152
0.0029134565215092516
0.002923489550954203
0.002937290058548084
0.002954556265964612
0.0029748285734522376
0.0029974530991916763
0.0030215591220423286
0.003046063800196348
0.0032848648082202526
0.003263445808824315
0.003242274628269319
0.003222275607826105
0.003204227053895613
0.003188745822777941
0.003176293149724418
0.0031671931622624504
0.0031616558143095458
0.0031597976345559766
0.0031616558143135716
0.003167193162270483
0.0031762931497363936
0.0031887458227937136
0.003204227053915072
0.0032222756078491128
0.0032422746282957274
0.0032634458088539823
0.0032848648082530606
0.003524957839960163
0.0035061345819560894
0.0034874995718526766
0.0034698320963561843
0.0034538133590357525
0.003440005740535639
0.003428848463372476
0.0034206641444992658
0.0034156705262709053
0.003413992459937053
0.0034156705262751177
0.003420664144507667
0.0034288484633850096
0.0034400057405521785
0.003453813359056194
0.0034698320963804058
0.0034874995718805536
0.003506134581987498
0.0035249578399950063
0.003766283518356581
0.0037496329571954814
0.0037331703855583574
0.003717545323038559
0.003703343880164191
0.003691065904291025
0.003681114760064137
0.0036737961873001533
0.0036693223385425976
0.0036678174418834546
0.0036693223385469136
0.003673796187308766
0.00368111476007699
0.0036910659043080077
0.003703343880185207
0.0037175453230635152
0.0037331703855871486
0.0037496329572279967
0.0037662835183927437
0.004008747945004664
0.003993908915855898
0.003979294046285558
0.0039654387838035186
0.00395284005561047
0.003941933239528319
0.00393307886224158
0.00392655675456804
0.0039225650409556315
0.003921221464676699
0.0039225650409599605
0.003926556754576677
0.00393307886225447
0.003941933239545371
0.003952840055631615
0.003965438783828667
0.003979294046314624
0.003993908915888791
0.004008747945041328
0.004252239749379908
0.004238906999139846
0.004225854788831231
0.004213519760456328
0.004202317680804765
0.004192621399688123
0.004184746295308976
0.004178941795881813
0.0041753872491033855
0.004174190427105085
0.00417538724910772
0.004178941795890471
0.004184746295321922
0.004192621399705271
0.004202317680826049
0.0042135197604816765
0.0042258547888605795
0.004238906999173116
0.004252239749417058
0.004496641666733286
0.00448455953373622
0.004472823249222913
0.004461784994213365
0.004451788349634486
0.004443147911031762
0.004436134658576513
0.004430966251713432
0.004427801145854897
0.0044267353915140185
0.004427801145859243
0.004430966251722133
0.004436134658589523
0.0044431479110490085
0.004451788349655924
0.0044617849942389255
0.004472823249252549
0.0044845595337698755
0.004496641666770907
0.00474183814891283
0.0047307942790146
0.004720162870133626
0.004710224783243314
0.0047012605815617906
0.004693532148998522
0.004687268719188348
0.004682656877308539
0.004679833867944737
0.004678883479933741
0.004679833867949111
0.00468265687731728
0.004687268719201426
0.00469353214901588
0.004701260581583382
0.0047102247832691
0.004720162870163553
0.0047307942790486245
0.004741838148950916
0.004987720117522516
0.0049775394669224335
0.004967834266177598
0.004958825852391367
0.0049507406455720155
0.0049437939047669325
0.004938176846825036
0.004934046954073585
0.004931521105138563
0.0049306710897983365
0.004931521105142957
0.004934046954082375
0.004938176846838192
0.0049437939047844125
0.004950740645593776
0.0049588258524173754
0.0049678342662078144
0.0049775394669568235
0.004987720117561047
0.00523418768401446
0.00522472696376591
0.005215798096929694
0.0052075733038066795
0.005200233141673299
0.005193952391577075
0.005188888489424664
0.005185172501721729
0.005182902484993314
0.005182138991320476
0.005182902484997733
0.005185172501730574
0.005188888489437899
0.005193952391594679
0.00520023314169524
0.005207573303832916
0.005215798096960198
0.005224726963800664
0.00523418768405343
0.005481151450183313
0.0054722940990300575
0.005464016867128269
0.005456451899033773
0.005449741406330241
0.005444025587115604
0.00543943245083222
0.005436069659339682
0.00543401835938746
0.005433328906220446
0.005434018359391909
0.005436069659348588
0.0054394324508455485
0.005444025587133335
0.005449741406352355
0.005456451899060242
0.0054640168671590715
0.005472294099065161
0.005481151450222707
0.005728532843502261
0.005720184566290964
0.005712455969428157
0.005705446865847577
0.005699267797434457
0.005694029833724435
0.00568983577824759
0.005686772959064479
0.005684907665817638
0.005684281223991654
0.005684907665822122
0.005686772959073444
0.005689835778261022
0.005694029833742305
0.005699267797456753
0.005705446865874276
0.005712455969459253
0.00572018456632642
0.0057285328435420675
0.0059762638210775825
0.005968348694775678
0.005961084203396983
0.005954544374101519
0.0059488138999044945
0.005943979633891054
0.005940123105190793
0.005937314267428646
0.005935606594440655
0.005935033571755363
0.005935606594445171
0.005937314267437677
0.005940123105204324
0.005943979633909069
0.005948813899926978
0.00595454437412846
0.005961084203428356
0.005968348694811478
0.005976263821117788
0.006224286184356343
0.0062167433094463724
0.006209873941742884
0.0062037317858147974
0.006198380679937554
0.006193887589819883
0.0061903163269322655
0.006187722214638447
0.006186147845068409
0.00618562000956633
0.006186147845072958
0.006187722214647548
0.006190316326945895
0.006193887589838042
0.006198380679960224
0.00620373178584197
0.0062098739417745475
0.00621674330948251
0.006224286184396953
0.006472550677364559
0.006465331336658499
0.006458801067356154
0.006452997754912759
0.00644796860587038
0.006443764445172959
0.006440434511321887
0.006438021970564907
0.006436560304482166
0.0064360706717448155
0.0064365603044865575
0.0064380219705736964
0.006440434511335059
0.006443764445190502
0.006447968605892293
0.006452997754939035
0.006458801067386788
0.006465331336693476
0.006472550677403873
0.006721015989117418
0.006714081266853193
0.006707844769314389
0.006702332229879014
0.006697577746535985
0.00669361919514729
0.006690493969524026
0.006688235258281324
0.006686869013072353
0.006686411715690371
0.006686869013076418
0.006688235258289473
0.006690493969536242
0.006693619195163566
0.006697577746556315
0.006702332229903398
0.006707844769342837
0.0067140812668856804
0.0067210159891539405
0.0069696477420525
0.0069629665518373685
0.006956987259772127
0.006951726396414365
0.006947207853368828
0.0069434592381650735
0.0069405084289266335
0.006938380522170721
0.006937095321379788
0.0069366654730474726
0.006937095321383548
0.006938380522178236
0.0069405084289378876
0.006943459238180075
0.006947207853387575
0.0069517263964368635
0.006956987259798376
0.006962966551867352
0.006969647742086226
0.007218417519827693
0.007211964989190602
0.007206213454374362
0.007201172585526705
0.007196858429627794
0.007193290548604218
0.007190489264925574
0.007188473188681756
0.007187257162431906
0.007186850724880778
0.007187257162435348
0.007188473188688627
0.007190489264935881
0.007193290548617956
0.007196858429644973
0.007201172585547307
0.007206213454398412
0.0072119649892180785
0.007218417519858607
0.007467301967237194
0.00746105812808788
0.007455510644761318
0.007450664164102603
0.007446528788397835
0.007443117855193905
0.007440445759851361
0.007438525974496362
0.007437369385759729
0.007436983043652874
0.007437369385762857
0.007438525974502595
0.0074404457598607095
0.007443117855206373
0.007446528788413426
0.007450664164121322
0.0074555106447831655
0.007461058128112857
0.007467301967265287
0.0077162819804774225
0.007710230717679446
0.007704868181510963
0.007700195419004815
0.007696218100055451
0.007692944813976664
0.007690385366438172
0.007688549209910593
0.007687444114543856
0.007687075161231395
0.007687444114546664
0.007688549209916189
0.007690385366446574
0.0076929448139878695
0.007696218100069466
0.007700195419021641
0.00770486818153061
0.007710230717701905
0.007716281980502691
0.007965341996076682
0.007959470209796819
0.007954277178422503
0.00794976144138727
0.007945925429337723
0.007942774168181638
0.007940313960345951
0.00793855115527215
0.007937491099267063
0.007937137334733236
0.007937491099269544
0.007938551155277114
0.007940313960353402
0.00794277416819158
0.007945925429350163
0.007949761441402218
0.007954277178439956
0.007959470209816768
0.007965341996099131
0.008214469380378049
0.00820876632109991
0.008203730243550847
0.008199358014742262
0.008195649761911552
0.008192607890128416
0.00819023607172767
0.008188538295928924
0.008187518050223325
0.00818717769145451
0.008187518050225492
0.008188538295933254
0.008190236071734172
0.0081926078901371
0.008195649761922427
0.00819935801475532
0.008203730243566095
0.00820876632111735
0.008214469380397686
0.008463653917626272
0.00845811065488907
0.008453221238207851
0.008448981507949592
0.008445390020450068
0.008442447302598128
0.008440155090011352
0.008438515606760637
0.008437530937783289
0.008437202541010262
0.008437530937785145
0.008438515606764339
0.008440155090016912
0.008442447302605547
0.008445390020459369
0.008448981507960767
0.008453221238220903
0.008458110654904004
0.00846365391764309
0.008712887392593302
0.008707496378724902
0.008702745061915568
0.008698628773469674
0.008695145070954608
0.00869229317913077
0.008690073439090354
0.008688486781264932
0.008687534253865816
0.008687216647600951
0.008687534253867354
0.008688486781268006
0.008690073439094963
0.00869229317913694
0.00869514507096233
0.00869862877347895
0.008702745061926415
0.00870749637873732
0.008712887392607293
0.008962163262001641
0.00895691794980288
0.008952297459656519
0.008948297051809192
0.008944913721714636
0.008942145824162565
0.00893999272172362
0.008938454422448491
0.008937531231028832
0.008937223458565296
0.008937531231030058
0.00893845442245093
0.008939992721727286
0.008942145824167462
0.00894491372172078
0.008948297051816574
0.008952297459665167
0.00895691794981279
0.008962163262012818
0.009211476404723792
0.009206370876278458
0.00920187485143919
0.009197983888451083
0.009194694718956627
0.009192005133042894
0.009189913831302179
0.009188420193528477
0.009187524017651093
0.009187225287939853
0.009187524017651993
0.009188420193530285
0.009189913831304899
0.009192005133046521
0.00919469471896118
0.009197983888456577
0.009201874851445628
0.009206370876285853
0.00921147640473214
0.00946082292738746
0.00945585150980478
0.009451474204886907
0.009447687077506473
0.009444486737869275
0.00944187062503229
0.009439837025279103
0.009438384926375085
0.009437513810239629
0.009437223457229355
0.009437513810240213
0.009438384926376256
0.009439837025280867
0.009441870625034652
0.009444486737872248
0.00944768707751008
0.009451474204891142
0.009455851509809664
0.009460822927392979
0.009710199980980255
0.009705356948123104
0.009701093016759645
0.009697404626787084
0.009694288341934792
0.0096917414256898
0.009689761948440012
0.009688348687056756
0.009687500949596644
0.009687218402649973
0.009687500949596911
0.009688348687057305
0.009689761948440819
0.009691741425690896
0.00969428834193618
0.009697404626788801
0.00970109301676168
0.009705356948125476
0.009710199980982957
