# vtk DataFile Version 2.0
mesh vtk view
ASCII
DATASET UNSTRUCTURED_GRID
POINTS 101 double
0.0 0.0 0.0
1.0 0.0 0.0
0.00999999999998092 0.0006987215179707998 1.6818290011828896e-14
0.019999999999961972 0.0027509100666977884 4.783399110693817e-14
0.029999999999942455 0.006090605973025964 7.380630120625579e-14
0.03999999999992102 0.010651864408059063 9.528900965907896e-14
0.049999999999898605 0.016368772049393226 1.1295618752423578e-13
0.059999999999877075 0.023175469858140677 1.2766559161050222e-13
0.06999999999985894 0.031006181640761212 1.3999358185163898e-13
0.07999999999984336 0.039795248066054785 1.502913199349656e-13
0.08999999999982784 0.04947716580810051 1.593268336150799e-13
0.09999999999981235 0.0599866314865062 1.673715802829176e-13
0.10999999999979683 0.07125859007611034 1.7424405323583765e-13
0.11999999999978037 0.0832282874592992 1.8105999382819253e-13
0.12999999999975798 0.09583132679533395 1.8586381768359913e-13
0.1399999999997296 0.1090037283826214 1.8545554607801068e-13
0.14999999999970012 0.1226819926916045 1.7964378124669614e-13
0.1599999999996709 0.13680316624806135 1.680802066197325e-13
0.16999999999964158 0.15130491004904004 1.5193739040523874e-13
0.17999999999961228 0.1661255701963541 1.3015698272363622e-13
0.18999999999958297 0.18120425043563887 1.0462776934184198e-13
0.19999999999955362 0.19648088629241445 7.794053174629068e-14
0.20999999999952432 0.21189632050041138 5.042473918551651e-14
0.21999999999949502 0.2273923794215403 2.9314910125353074e-14
0.22999999999946574 0.2429119501614495 2.0260229361019167e-14
0.23999999999943658 0.2583990580895667 1.8156707472621482e-14
0.2499999999994072 0.2737989444777677 1.6235567099763883e-14
0.259999999999378 0.2890581439775583 1.4347752732445566e-14
0.2699999999993487 0.30412456166174245 1.223869217704634e-14
0.2799999999993195 0.3189475493630063 1.0096410145013708e-14
0.28999999999929027 0.3334779810487092 7.873361297830477e-15
0.299999999999261 0.347668326978426 5.63121832535472e-15
0.30999999999923167 0.36147272639838834 3.3222083890875963e-15
0.3199999999992025 0.37484705853497313 8.344643993813908e-16
0.32999999999917334 0.38774901165773273 -1.4449891195386718e-15
0.33999999999914415 0.40013814999117425 -3.7395761764018364e-15
0.34999999999911485 0.41197597826354426 -5.831543079561032e-15
0.3599999999990857 0.4232260036902707 -7.88843937373755e-15
0.3699999999990565 0.4338537951994085 -9.748777462519395e-15
0.37999999999902745 0.443827039716484 -1.1570905627384195e-14
0.38999999999899826 0.4531155953364226 -1.3077586281072982e-14
0.3999999999989691 0.4616915412208623 -1.4513423697659454e-14
0.40999999999893993 0.46952922407001807 -1.5691794627595057e-14
0.41999999999891074 0.4766053010293667 -1.685672685355057e-14
0.42999999999888167 0.48289877890278543 -1.7659215588364497e-14
0.43999999999885253 0.48839104955532114 -1.832859501226102e-14
0.44999999999882334 0.49306592140054745 -1.9049746917218303e-14
0.4599999999987941 0.4969096468793793 -1.9339637794440997e-14
0.4699999999987649 0.4999109458493276 -1.9822832167530125e-14
0.4799999999987358 0.5020610248153875 -1.9820505159236848e-14
0.4899999999987067 0.5033535919461232 -1.9858221522172446e-14
0.49999999999868844 0.5037848678309359 -1.972853037002983e-14
0.5099999999987039 0.5033535919470321 -1.950802537582314e-14
0.5199999999987304 0.5020610248171884 -1.904912360185827e-14
0.5299999999987569 0.499910945851996 -1.8459005471603128e-14
0.5399999999987832 0.4969096468828858 -1.765611653890227e-14
0.5499999999988097 0.49306592140485633 -1.6736237995469927e-14
0.5599999999988362 0.48839104956039214 -1.5880822056893823e-14
0.5699999999988627 0.48289877890857164 -1.4650998409857e-14
0.5799999999988892 0.47660530103581394 -1.3756681490528626e-14
0.5899999999989156 0.46952922407706693 -1.2657067673664395e-14
0.599999999998942 0.46169154122845124 -1.1689186925635599e-14
0.6099999999989686 0.4531155953444868 -1.0854141078093748e-14
0.6199999999989949 0.4438270397249597 -1.0177627607431108e-14
0.6299999999990215 0.4338537952082309 -9.305922862103235e-15
0.6399999999990479 0.42322600369937696 -8.496984810766527e-15
0.6499999999990743 0.41197597827287347 -7.342451427565713e-15
0.6599999999991009 0.4001381500006644 -6.52176319760715e-15
0.6699999999991273 0.38774901166732434 -5.48215805065474e-15
0.679999999999154 0.374847058544605 -4.5543886513681125e-15
0.6899999999991806 0.3614727264079997 -3.602476283042483e-15
0.699999999999207 0.3476683269879577 -2.943776924609444e-15
0.7099999999992337 0.333477981058105 -2.0488849113801762e-15
0.7199999999992602 0.3189475493722146 -1.1796265112778821e-15
0.7299999999992869 0.30412456167071494 -3.4301345744625816e-16
0.7399999999993133 0.2890581439862509 5.040664715711336e-16
0.7499999999993398 0.2737989444861399 1.3220702657936786e-15
0.7599999999993663 0.25839905809758246 2.082368887935134e-15
0.7699999999993928 0.24291195016907777 2.8626049575826587e-15
0.7799999999994194 0.22739237942875737 3.641794245028899e-15
0.7899999999994458 0.2118963205071967 4.037550897343077e-15
0.7999999999994722 0.19648088629874533 4.626829778602476e-15
0.8099999999994988 0.18120425044149832 5.10205604046946e-15
0.8199999999995253 0.16612557020173044 5.394636073834579e-15
0.8299999999995519 0.15130491005392482 5.645067560312987e-15
0.8399999999995782 0.13680316625245467 5.706131703252215e-15
0.8499999999996046 0.12268199269551232 5.6858780999565625e-15
0.8599999999996311 0.10900372838605259 5.643973993994123e-15
0.8699999999996574 0.0958313267983023 5.395919393048095e-15
0.8799999999996838 0.08322828746182832 5.1291504254829675e-15
0.8899999999997101 0.07125859007822666 4.741389430414347e-15
0.8999999999997366 0.0599866314882331 4.285202250538914e-15
0.909999999999763 0.049477165809465054 3.753608149877336e-15
0.9199999999997893 0.039795248067088104 3.246918648196459e-15
0.9299999999998158 0.031006181641498824 2.660905067351332e-15
0.9399999999998422 0.02317546985862106 2.084600915198384e-15
0.9499999999998686 0.016368772049659672 1.5400136069049797e-15
0.9599999999998948 0.010651864408162357 1.0554022135958695e-15
0.9699999999999211 0.006090605973022864 6.325698413298831e-16
0.9799999999999475 0.0027509100666498676 2.9799447872662346e-16
0.9899999999999737 0.0006987215179436746 7.841199215239319e-17

CELLS 100 300
2 0 2
2 2 3
2 3 4
2 4 5
2 5 6
2 6 7
2 7 8
2 8 9
2 9 10
2 10 11
2 11 12
2 12 13
2 13 14
2 14 15
2 15 16
2 16 17
2 17 18
2 18 19
2 19 20
2 20 21
2 21 22
2 22 23
2 23 24
2 24 25
2 25 26
2 26 27
2 27 28
2 28 29
2 29 30
2 30 31
2 31 32
2 32 33
2 33 34
2 34 35
2 35 36
2 36 37
2 37 38
2 38 39
2 39 40
2 40 41
2 41 42
2 42 43
2 43 44
2 44 45
2 45 46
2 46 47
2 47 48
2 48 49
2 49 50
2 50 51
2 51 52
2 52 53
2 53 54
2 54 55
2 55 56
2 56 57
2 57 58
2 58 59
2 59 60
2 60 61
2 61 62
2 62 63
2 63 64
2 64 65
2 65 66
2 66 67
2 67 68
2 68 69
2 69 70
2 70 71
2 71 72
2 72 73
2 73 74
2 74 75
2 75 76
2 76 77
2 77 78
2 78 79
2 79 80
2 80 81
2 81 82
2 82 83
2 83 84
2 84 85
2 85 86
2 86 87
2 87 88
2 88 89
2 89 90
2 90 91
2 91 92
2 92 93
2 93 94
2 94 95
2 95 96
2 96 97
2 97 98
2 98 99
2 99 100
2 100 1

CELL_TYPES 100
3
3
3
3
3
3
3
3
3
3
3
3
3
3
3
3
3
3
3
3
3
3
3
3
3
3
3
3
3
3
3
3
3
3
3
3
3
3
3
3
3
3
3
3
3
3
3
3
3
3
3
3
3
3
3
3
3
3
3
3
3
3
3
3
3
3
3
3
3
3
3
3
3
3
3
3
3
3
3
3
3
3
3
3
3
3
3
3
3
3
3
3
3
3
3
3
3
3
3
3

POINT_DATA 101
SCALARS DISPL float 1
LOOKUP_TABLE default
0.0
0.0
0.0003515844582169249
0.0013842098755055742
0.003064686496929367
0.005359832036923327
0.008236480063438904
0.01166149145894428
0.015601768792238868
0.020024273435209582
0.02489604525887372
0.03018422474334474
0.035856077336748345
0.04187901989863015
0.04822064906401611
0.054848771365061035
0.061731434948097706
0.06883696272496163
0.07613398679869399
0.08359148400508222
0.09117881241304567
0.09886574862860695
0.1066225257491074
0.11441987181640047
0.12222904862005267
0.13002189070407402
0.13777084443333945
0.14544900697875293
0.15303016508326855
0.1604888334741321
0.16780029279015873
0.17494062689651257
0.1818867594632791
0.18861648968814798
0.19510852704772327
0.20134252496636132
0.2072991132959913
0.21295992950510012
0.21830764847994183
0.22332601084608764
0.22799984972361073
0.23231511583454278
0.23625890088670382
0.23981945916359637
0.24298622725577154
0.2457498418748839
0.24810215569757935
0.25003625119235434
0.25154645238862033
0.2526283345533505
0.25327873174691123
0.2534957422359316
0.2532787317473686
0.25262833455425665
0.25154645238996304
0.25003625119411876
0.2481021556997475
0.24574984187743554
0.24298622725868307
0.23981945916684053
0.2362589008902507
0.2323151158383614
0.22799984972766849
0.22332601085035242
0.21830764848438114
0.21295992950968226
0.20729911330068557
0.20134252497113658
0.1951085270525496
0.18861648969299455
0.18188675946811536
0.17494062690130877
0.16780029279488656
0.16048883347876555
0.15303016508778336
0.1454490069831269
0.1377708444375522
0.1300218907081074
0.12222904862389107
0.11441987182003197
0.10662252575252165
0.09886574863179252
0.09117881241599404
0.0835914840077875
0.07613398680115192
0.06883696272717228
0.06173143495006405
0.05484877136678755
0.048220649065509734
0.04187901989990277
0.035856077337813236
0.030184224744213683
0.024896045259560334
0.020024273435729528
0.015601768792610023
0.011661491459186
0.008236480063572976
0.005359832036975303
0.0030646864969278076
0.0013842098754814614
0.000351584458203276

