# vtk DataFile Version 2.0
mesh vtk view
ASCII
DATASET UNSTRUCTURED_GRID
POINTS 101 double
0.0 0.0 0.0
1.0 0.0 0.0
0.009999999999981796 -0.003959421935167869 -9.530364340036382e-14
0.019999999999963894 -0.015588490377954145 -2.710592829393165e-13
0.02999999999994549 -0.034513433847147154 -4.1823570683544984e-13
0.03999999999992517 -0.0603605649790014 -5.399710547347812e-13
0.04999999999990383 -0.09275637494656168 -6.400850626373365e-13
0.05999999999988356 -0.13132766252946393 -7.234383524595132e-13
0.06999999999986688 -0.17570169596431365 -7.932969638259548e-13
0.07999999999985272 -0.22550640570764396 -8.516508129648057e-13
0.08999999999983849 -0.2803706062459031 -9.028520571521201e-13
0.09999999999982417 -0.339924245090202 -9.484389549365337e-13
0.10999999999980996 -0.4037986770979589 -9.87382968336414e-13
0.11999999999979465 -0.4716269622693624 -1.0260066316930918e-12
0.12999999999977355 -0.5430441851735595 -1.0532283002070625e-12
0.13999999999974624 -0.6176877941681883 -1.050914761108728e-12
0.14999999999971786 -0.6951979585857594 -1.0179814270646122e-12
0.15999999999968956 -0.7752179420723482 -9.52454504178485e-13
0.16999999999966106 -0.8573944902778942 -8.609785456296868e-13
0.17999999999963248 -0.9413782311126739 -7.375562354339391e-13
0.18999999999960396 -1.0268240858019544 -5.928906929371049e-13
0.19999999999957552 -1.1133916889903495 -4.4166301322898086e-13
0.20999999999954694 -1.2007458161689986 -2.857401887179271e-13
0.21999999999951828 -1.2885568167220627 -1.6611782404366754e-13
0.22999999999948945 -1.3765010509148816 -1.148079663791087e-13
0.23999999999946067 -1.4642613291742126 -1.0288800901152181e-13
0.24999999999943176 -1.5515273520406847 -9.200154689866207e-14
0.25999999999940293 -1.6379961492061648 -8.130393215052494e-14
0.269999999999374 -1.7233725160832085 -6.935258900326264e-14
0.2799999999993453 -1.8073694463903704 -5.72129908217444e-14
0.2899999999993165 -1.88970855927602 -4.4615714021039405e-14
0.29999999999928784 -1.9701205195444154 -3.191023717701011e-14
0.30999999999925903 -2.048345449590869 -1.882584753816306e-14
0.31999999999923 -2.1241333316981827 -4.728631596494551e-15
0.329999999999201 -2.19724439939382 8.188271677385813e-15
0.33999999999917185 -2.2674495166166557 2.1190931666277088e-14
0.3499999999991425 -2.334530543493419 3.3045410784179207e-14
0.3599999999991132 -2.398280687578202 4.4701156451179486e-14
0.3699999999990839 -2.4585048394633167 5.524307228760994e-14
0.3799999999990546 -2.5150198917267446 6.556846522184383e-14
0.38999999999902524 -2.56765504023973 7.410632225941362e-14
0.39999999999899577 -2.6162520669182214 8.224273428673697e-14
0.40999999999896636 -2.6606656030634377 8.892016955637205e-14
0.419999999998937 -2.7007633724997464 9.552145217011996e-14
0.4299999999989078 -2.7364264137824525 1.0006888833406556e-13
0.4399999999988785 -2.7675492808134887 1.0386203840281251e-13
0.4499999999988492 -2.794040221269771 1.0794856586423713e-13
0.45999999999881974 -2.8158213323164847 1.0959128083516574e-13
0.4699999999987902 -2.8328286931461917 1.1232938228267078e-13
0.479999999998761 -2.8450124739538647 1.1231619590234222e-13
0.4899999999987316 -2.8523370210280334 1.1252992195897727e-13
0.49999999999871303 -2.8547809177086387 1.1179500543016913e-13
0.5099999999987281 -2.852337021033184 1.1054547712966454e-13
0.5199999999987541 -2.8450124739640694 1.0794503374386361e-13
0.5299999999987801 -2.832828693161313 1.0460103100575114e-13
0.5399999999988061 -2.815821332336355 1.0005132705377961e-13
0.5499999999988319 -2.794040221294188 9.483868197432966e-14
0.5599999999988579 -2.767549280842224 8.999132498906506e-14
0.5699999999988837 -2.7364264138152414 8.302232432252306e-14
0.5799999999989097 -2.700763372536281 7.795452844632893e-14
0.5899999999989355 -2.6606656031033813 7.172338348409829e-14
0.5999999999989614 -2.6162520669612257 6.623872591193511e-14
0.6099999999989874 -2.5676550402854272 6.150679944253127e-14
0.6199999999990133 -2.5150198917747733 5.767322310877632e-14
0.6299999999990393 -2.4585048395133104 5.273356288525171e-14
0.6399999999990651 -2.398280687629805 4.814958059434369e-14
0.6499999999990906 -2.3345305435462844 4.1607224756205737e-14
0.6599999999991163 -2.267449516670433 3.695665811977388e-14
0.6699999999991418 -2.1972443994481727 3.106556228704355e-14
0.6799999999991673 -2.124133331752763 2.5808202357752656e-14
0.6899999999991927 -2.0483454496453333 2.0414032270574085e-14
0.6999999999992179 -1.9701205195984284 1.6681402572786862e-14
0.7099999999992433 -1.8897085593292633 1.161034783115434e-14
0.7199999999992684 -1.8073694464425507 6.68455023057467e-15
0.7299999999992939 -1.7233725161340527 1.9437429255287977e-15
0.7399999999993193 -1.637996149255423 -2.856376672236426e-15
0.7499999999993449 -1.5515273520881272 -7.491731506164185e-15
0.7599999999993706 -1.4642613292196351 -1.1800090364965768e-14
0.7699999999993961 -1.3765010509581084 -1.622142809296841e-14
0.7799999999994217 -1.2885568167629593 -2.0636834055163774e-14
0.7899999999994471 -1.2007458162074487 -2.2879455084944122e-14
0.7999999999994727 -1.1133916890262243 -2.621870207874738e-14
0.8099999999994985 -1.026824085835158 -2.8911650895993624e-14
0.8199999999995244 -0.9413782311431398 -3.056960441839597e-14
0.8299999999995505 -0.8573944903055746 -3.1988716175106953e-14
0.8399999999995768 -0.7752179420972438 -3.233474631842924e-14
0.8499999999996031 -0.6951979586079037 -3.221997589975388e-14
0.8599999999996292 -0.6176877941876318 -3.198251929930006e-14
0.8699999999996553 -0.5430441851903801 -3.05768765606059e-14
0.8799999999996816 -0.47162696228369416 -2.9065185744403505e-14
0.8899999999997078 -0.4037986771099513 -2.6867873439014654e-14
0.8999999999997341 -0.3399242450999878 -2.4282812753053865e-14
0.9099999999997602 -0.2803706062536355 -2.1270446182638256e-14
0.9199999999997864 -0.22550640571349942 -1.8399205673113282e-14
0.9299999999998129 -0.17570169596849347 -1.5078462048324227e-14
0.9399999999998393 -0.1313276625321861 -1.1812738519457519e-14
0.949999999999866 -0.09275637494807154 -8.726743772461559e-15
0.9599999999998925 -0.06036056497958674 -5.980612543709931e-15
0.969999999999919 -0.03451343384712959 -3.5845624342026734e-15
0.9799999999999459 -0.015588490377682595 -1.6886353794508676e-15
0.9899999999999728 -0.003959421935014159 -4.44334622196895e-16

CELLS 100 300
2 0 2
2 2 3
2 3 4
2 4 5
2 5 6
2 6 7
2 7 8
2 8 9
2 9 10
2 10 11
2 11 12
2 12 13
2 13 14
2 14 15
2 15 16
2 16 17
2 17 18
2 18 19
2 19 20
2 20 21
2 21 22
2 22 23
2 23 24
2 24 25
2 25 26
2 26 27
2 27 28
2 28 29
2 29 30
2 30 31
2 31 32
2 32 33
2 33 34
2 34 35
2 35 36
2 36 37
2 37 38
2 38 39
2 39 40
2 40 41
2 41 42
2 42 43
2 43 44
2 44 45
2 45 46
2 46 47
2 47 48
2 48 49
2 49 50
2 50 51
2 51 52
2 52 53
2 53 54
2 54 55
2 55 56
2 56 57
2 57 58
2 58 59
2 59 60
2 60 61
2 61 62
2 62 63
2 63 64
2 64 65
2 65 66
2 66 67
2 67 68
2 68 69
2 69 70
2 70 71
2 71 72
2 72 73
2 73 74
2 74 75
2 75 76
2 76 77
2 77 78
2 78 79
2 79 80
2 80 81
2 81 82
2 82 83
2 83 84
2 84 85
2 85 86
2 86 87
2 87 88
2 88 89
2 89 90
2 90 91
2 91 92
2 92 93
2 93 94
2 94 95
2 95 96
2 96 97
2 97 98
2 98 99
2 99 100
2 100 1

CELL_TYPES 100
3
3
3
3
3
3
3
3
3
3
3
3
3
3
3
3
3
3
3
3
3
3
3
3
3
3
3
3
3
3
3
3
3
3
3
3
3
3
3
3
3
3
3
3
3
3
3
3
3
3
3
3
3
3
3
3
3
3
3
3
3
3
3
3
3
3
3
3
3
3
3
3
3
3
3
3
3
3
3
3
3
3
3
3
3
3
3
3
3
3
3
3
3
3
3
3
3
3
3
3

POINT_DATA 101
SCALARS DISPL float 1
LOOKUP_TABLE default
0.0
0.0
0.0003515844582169249
0.0013842098755055742
0.003064686496929367
0.005359832036923327
0.008236480063438904
0.01166149145894428
0.015601768792238868
0.020024273435209582
0.02489604525887372
0.03018422474334474
0.035856077336748345
0.04187901989863015
0.04822064906401611
0.054848771365061035
0.061731434948097706
0.06883696272496163
0.07613398679869399
0.08359148400508222
0.09117881241304567
0.09886574862860695
0.1066225257491074
0.11441987181640047
0.12222904862005267
0.13002189070407402
0.13777084443333945
0.14544900697875293
0.15303016508326855
0.1604888334741321
0.16780029279015873
0.17494062689651257
0.1818867594632791
0.18861648968814798
0.19510852704772327
0.20134252496636132
0.2072991132959913
0.21295992950510012
0.21830764847994183
0.22332601084608764
0.22799984972361073
0.23231511583454278
0.23625890088670382
0.23981945916359637
0.24298622725577154
0.2457498418748839
0.24810215569757935
0.25003625119235434
0.25154645238862033
0.2526283345533505
0.25327873174691123
0.2534957422359316
0.2532787317473686
0.25262833455425665
0.25154645238996304
0.25003625119411876
0.2481021556997475
0.24574984187743554
0.24298622725868307
0.23981945916684053
0.2362589008902507
0.2323151158383614
0.22799984972766849
0.22332601085035242
0.21830764848438114
0.21295992950968226
0.20729911330068557
0.20134252497113658
0.1951085270525496
0.18861648969299455
0.18188675946811536
0.17494062690130877
0.16780029279488656
0.16048883347876555
0.15303016508778336
0.1454490069831269
0.1377708444375522
0.1300218907081074
0.12222904862389107
0.11441987182003197
0.10662252575252165
0.09886574863179252
0.09117881241599404
0.0835914840077875
0.07613398680115192
0.06883696272717228
0.06173143495006405
0.05484877136678755
0.048220649065509734
0.04187901989990277
0.035856077337813236
0.030184224744213683
0.024896045259560334
0.020024273435729528
0.015601768792610023
0.011661491459186
0.008236480063572976
0.005359832036975303
0.0030646864969278076
0.0013842098754814614
0.000351584458203276

