# vtk DataFile Version 2.0
mesh vtk view
ASCII
DATASET UNSTRUCTURED_GRID
POINTS 101 double
0.0 0.0 0.0
1.0 0.0 0.0
0.009999999999981054 2.6791036557122303e-14 -0.0016303502081339324
0.019999999999962263 7.53104809673283e-14 -0.0064187901542942264
0.029999999999942916 1.1395162948540665e-13 -0.014211413934974632
0.039999999999921654 1.4346064340232135e-13 -0.024854350282743444
0.0499999999998994 1.6460072587231377e-13 -0.038193801445317886
0.05999999999987806 1.7812292031319528e-13 -0.0540760963319528
0.06999999999986015 1.8481080631165407e-13 -0.07234775715771387
0.07999999999984479 1.8541475943673096e-13 -0.0928555788164607
0.08999999999982947 1.8078812120744362e-13 -0.11544672021437064
0.09999999999981415 1.7171625198599664e-13 -0.1399688067971888
0.10999999999979883 1.5906762700182663e-13 -0.16627004350619914
0.11999999999978253 1.436494026704819e-13 -0.19419933740029455
0.12999999999976034 1.2638314282902962e-13 -0.2236064291844103
0.13999999999973212 1.0843633913219612e-13 -0.25434203288815377
0.14999999999970282 9.05885840401936e-14 -0.2862579829425537
0.15999999999967376 7.345025583518018e-14 -0.3192073879077535
0.16999999999964452 5.783387494499347e-14 -0.35304479011018836
0.17999999999961536 4.4107006968581775e-14 -0.3876263304540781
0.18999999999958617 3.201701039376055e-14 -0.42280991767922516
0.19999999999955695 2.1584532177525115e-14 -0.45845540134516827
0.20999999999952776 1.2683861415686226e-14 -0.494424747830603
0.21999999999949857 5.8849972708840674e-15 -0.5305822186466519
0.22999999999946935 1.7899024824853218e-15 -0.5667945503731718
0.23999999999944024 3.924654523278227e-16 -0.6029311355388288
0.24999999999941094 2.511554201941275e-16 -0.6388642037780043
0.2599999999993818 3.9145290711714845e-16 -0.6744690026108898
0.26999999999935254 2.1626657126514649e-16 -0.7096239772073605
0.27999999999932346 2.202484886106413e-16 -0.744210948510351
0.28999999999929427 1.570023381183929e-16 -0.778115289110367
0.2999999999992651 1.8375507295091334e-16 -0.8112260962797496
0.30999999999923583 1.1361264243492462e-16 -0.8434363615930398
0.31999999999920664 5.572526643291818e-17 -0.8746431365784507
0.32999999999917756 -2.734568343913398e-17 -0.904747693864941
0.3399999999991484 -1.444534731082744e-16 -0.9336556833096955
0.34999999999911907 -1.983049517329192e-16 -0.9612772826119573
0.3599999999990899 -2.22140272690482e-16 -0.9875273419410571
0.36999999999906064 -2.6251536104828533e-16 -1.0123255221291267
0.37999999999903156 -3.432831920012013e-16 -1.0355964260023898
0.38999999999900237 -5.105650696665138e-16 -1.0572697224490049
0.3999999999989732 -3.901554395037836e-16 -1.0772802628461255
0.40999999999894393 -5.747874083709413e-16 -1.095568189494253
0.41999999999891474 -3.795581327654443e-16 -1.112079035732831
0.42999999999888566 -6.799889226704706e-16 -1.1267638174375716
0.4399999999988565 -7.721740204320653e-16 -1.1395791156269177
0.4499999999988273 -7.584991217478791e-16 -1.1504871499325404
0.459999999998798 -6.51085150300629e-16 -1.1594558427165769
0.46999999999876874 -9.478710086327733e-16 -1.1664588736465538
0.47999999999873966 -8.412101114796079e-16 -1.171475724567462
0.48999999999871047 -7.994555611496148e-16 -1.1744917145392864
0.49999999999869216 -8.00686525124424e-16 -1.1754980249372968
0.5099999999987077 -9.78921273038824e-16 -1.1744917145416434
0.519999999998734 -1.0946137536044025e-15 -1.1714757245721337
0.5299999999987604 -7.91564504038496e-16 -1.1664588736534751
0.5399999999987867 -9.280099006259024e-16 -1.159455842725668
0.549999999998813 -7.667401900010997e-16 -1.1504871499437044
0.5599999999988394 -1.1012787348178832e-15 -1.1395791156400448
0.5699999999988659 -1.0819677400679236e-15 -1.1267638174525363
0.5799999999988923 -9.476505015535377e-16 -1.1120790357494934
0.5899999999989186 -1.0480206365308661e-15 -1.0955681895124632
0.5999999999989449 -9.274917129535304e-16 -1.07728026286573
0.6099999999989714 -9.161551748199314e-16 -1.0572697224698444
0.6199999999989977 -9.793881172339352e-16 -1.035596426024308
0.6299999999990241 -9.287654058160894e-16 -1.0123255221519658
0.6399999999990504 -9.105777162956511e-16 -0.9875273419646631
0.6499999999990768 -1.0296121583760545e-15 -0.9612772826361731
0.6599999999991032 -1.0167129506497455e-15 -0.9336556833343655
0.6699999999991295 -9.054285571299783e-16 -0.9047476938899142
0.679999999999156 -1.0033340901769117e-15 -0.8746431366035741
0.6899999999991824 -1.0069493845888503e-15 -0.843436361618164
0.6999999999992087 -9.30024059996346e-16 -0.8112260963047335
0.7099999999992351 -9.696349359296708e-16 -0.7781152891350757
0.7199999999992615 -9.989865959658755e-16 -0.7442109485346607
0.7299999999992879 -9.457368033177974e-16 -0.7096239772311566
0.7399999999993142 -9.3311857832541e-16 -0.6744690026340685
0.7499999999993405 -9.368206893824138e-16 -0.6388642038004734
0.759999999999367 -8.350082807719628e-16 -0.6029311355605042
0.7699999999993933 -6.2285334780871e-16 -0.5667945503939933
0.7799999999994197 -7.090602824128689e-16 -0.5305822186665782
0.789999999999446 -7.434652757044516e-16 -0.49442474784960316
0.7999999999994724 -6.713005458256251e-16 -0.45845540136321866
0.8099999999994988 -6.183710728077205e-16 -0.4228099176963125
0.8199999999995252 -6.625571219609899e-16 -0.3876263304701926
0.8299999999995517 -5.537362094282717e-16 -0.35304479012532214
0.839999999999578 -5.312300611065569e-16 -0.31920738792190584
0.8499999999996044 -4.757550193123249e-16 -0.28625798295572635
0.8599999999996307 -4.1897214090087367e-16 -0.25434203290034507
0.869999999999657 -4.0223948111183323e-16 -0.22360642919562373
0.8799999999996835 -3.5878007979589892e-16 -0.19419933741055104
0.8899999999997098 -2.854660088838955e-16 -0.16627004351551702
0.8999999999997362 -2.2720313315105134e-16 -0.13996880680557114
0.9099999999997626 -2.2869564843695795e-16 -0.11544672022182
0.9199999999997889 -1.6258086589198784e-16 -0.09285557882298227
0.9299999999998153 -1.3882115480336655e-16 -0.07234775716331537
0.9399999999998417 -1.0116598865576633e-16 -0.05407609633664072
0.9499999999998682 -7.435969523319035e-17 -0.03819380144910175
0.9599999999998945 -4.507858828969041e-17 -0.024854350285641813
0.9699999999999208 -2.578732173764122e-17 -0.01421141393701169
0.9799999999999472 -1.3474551993288143e-17 -0.006418790155496905
0.9899999999999736 -3.220570061487074e-18 -0.001630350208530143

CELLS 100 300
2 0 2
2 2 3
2 3 4
2 4 5
2 5 6
2 6 7
2 7 8
2 8 9
2 9 10
2 10 11
2 11 12
2 12 13
2 13 14
2 14 15
2 15 16
2 16 17
2 17 18
2 18 19
2 19 20
2 20 21
2 21 22
2 22 23
2 23 24
2 24 25
2 25 26
2 26 27
2 27 28
2 28 29
2 29 30
2 30 31
2 31 32
2 32 33
2 33 34
2 34 35
2 35 36
2 36 37
2 37 38
2 38 39
2 39 40
2 40 41
2 41 42
2 42 43
2 43 44
2 44 45
2 45 46
2 46 47
2 47 48
2 48 49
2 49 50
2 50 51
2 51 52
2 52 53
2 53 54
2 54 55
2 55 56
2 56 57
2 57 58
2 58 59
2 59 60
2 60 61
2 61 62
2 62 63
2 63 64
2 64 65
2 65 66
2 66 67
2 67 68
2 68 69
2 69 70
2 70 71
2 71 72
2 72 73
2 73 74
2 74 75
2 75 76
2 76 77
2 77 78
2 78 79
2 79 80
2 80 81
2 81 82
2 82 83
2 83 84
2 84 85
2 85 86
2 86 87
2 87 88
2 88 89
2 89 90
2 90 91
2 91 92
2 92 93
2 93 94
2 94 95
2 95 96
2 96 97
2 97 98
2 98 99
2 99 100
2 100 1

CELL_TYPES 100
3
3
3
3
3
3
3
3
3
3
3
3
3
3
3
3
3
3
3
3
3
3
3
3
3
3
3
3
3
3
3
3
3
3
3
3
3
3
3
3
3
3
3
3
3
3
3
3
3
3
3
3
3
3
3
3
3
3
3
3
3
3
3
3
3
3
3
3
3
3
3
3
3
3
3
3
3
3
3
3
3
3
3
3
3
3
3
3
3
3
3
3
3
3
3
3
3
3
3
3

POINT_DATA 101
SCALARS DISPL float 1
LOOKUP_TABLE default
0.0
0.0
0.0003515844581174384
0.0013842098752206826
0.0030646864964856725
0.005359832036345838
0.00823648006275103
0.011661491458167847
0.015601768791394096
0.020024273434315117
0.024896045257946586
0.030184224742400498
0.03585607733580124
0.04187901989769255
0.04822064906309868
0.05484877136417258
0.06173143494724591
0.06883696272415292
0.07613398679793251
0.08359148400436954
0.09117881241238036
0.09886574862798582
0.10662252574852522
0.11441987181585148
0.12222904861953336
0.13002189070358114
0.13777084443287071
0.14544900697830837
0.153030165082848
0.16048883347373544
0.16780029278978592
0.17494062689616344
0.1818867594629535
0.1886164896878459
0.19510852704744525
0.2013425249661082
0.20729911329576414
0.21295992950489973
0.2183076484797697
0.22332601084594425
0.2279998497234965
0.23231511583445766
0.2362589008866476
0.23981945916356837
0.2429862272557708
0.2457498418749094
0.24810215569762997
0.25003625119242945
0.2515464523887195
0.2526283345534738
0.253278731747059
0.25349574223610444
0.2532787317475673
0.2526283345544812
0.25154645239021206
0.25003625119438994
0.24810215570003746
0.24574984187774024
0.2429862272589979
0.2398194591671616
0.2362589008905746
0.23231511583868536
0.22799984972799053
0.22332601085067094
0.21830764848469497
0.21295992950999035
0.20729911330098624
0.20134252497142827
0.1951085270528307
0.18861648969326372
0.18188675946837152
0.1749406269015512
0.16780029279511435
0.16048883347897783
0.15303016508797962
0.14544900698330684
0.13777084443771614
0.13002189070825543
0.12222904862402349
0.11441987182014857
0.10662252575262261
0.09886574863187837
0.09117881241606524
0.08359148400784462
0.07613398680119611
0.06883696272720487
0.061731434950086574
0.05484877136680163
0.04822064906551686
0.041879019899904356
0.03585607733781064
0.030184224744208153
0.02489604525955304
0.020024273435721492
0.015601768792602059
0.011661491459178793
0.008236480063567017
0.00535983203697087
0.0030646864969249635
0.0013842098754800398
0.0003515844582028811

