# vtk DataFile Version 2.0
mesh vtk view
ASCII
DATASET UNSTRUCTURED_GRID
POINTS 101 double
0.0 0.0 0.0
1.0 0.0 0.0
0.009999999999981055 4.2100200304049334e-14 -0.0025619788984961797
0.019999999999962267 1.1834504152008733e-13 -0.010086670242462356
0.02999999999994292 1.7906684633421047e-13 -0.022332221897817278
0.03999999999992166 2.2543815391793354e-13 -0.03905683615859684
0.04999999999989941 2.5865828351363594e-13 -0.060018830842642396
0.05999999999987807 2.7990744620644975e-13 -0.08497672280735441
0.06999999999986016 2.9041698134688496e-13 -0.11368933267640752
0.0799999999998448 2.913660505434344e-13 -0.14591590956872397
0.08999999999982947 2.840956190402685e-13 -0.18141627462258242
0.09999999999981417 2.698398245494233e-13 -0.21995098210986808
0.10999999999979884 2.4996341386001324e-13 -0.26128149693831293
0.11999999999978256 2.25734775625043e-13 -0.30517038734332
0.12999999999976036 1.986020815884751e-13 -0.3513815315755019
0.13999999999973214 1.7039996149345104e-13 -0.3996803373956702
0.14999999999970284 1.423534892060185e-13 -0.4498339731954416
0.15999999999967376 1.154218305981403e-13 -0.5016116095693269
0.16999999999964455 9.088180348498974e-14 -0.5547846701731531
0.17999999999961538 6.931101095062851e-14 -0.6091270907135513
0.1899999999995862 5.031244490448087e-14 -0.6644155849244967
0.19999999999955698 3.391855056468232e-14 -0.7204299163995501
0.2099999999995278 1.9931782224649784e-14 -0.776953175162376
0.2199999999994986 9.247852854246391e-15 -0.8337720578733101
0.22999999999946938 2.812703901048363e-15 -0.890677150586413
0.23999999999944027 6.167314250865785e-16 -0.9474632129895881
0.24999999999941097 3.946728031622003e-16 -1.003929463079721
0.25999999999938184 6.151402826126619e-16 -1.0598798612456841
0.2699999999993526 3.398474691309445e-16 -1.1151233927544235
0.2799999999993235 3.4610476781672206e-16 -1.169474347659123
0.2899999999992943 2.4671795990033173e-16 -1.2227525971734339
0.29999999999926513 2.8875797178000665e-16 -1.2747838655824637
0.3099999999992359 1.785341523977387e-16 -1.3253999967890626
0.3199999999992067 8.756827582315714e-17 -1.3744392146232798
0.3299999999991776 -4.2971788261496254e-17 -1.4217463760734788
0.33999999999914843 -2.269983148844312e-16 -1.4671732166295215
0.3499999999991191 -3.1162206700887304e-16 -1.5105785869616473
0.35999999999908994 -3.4907757137075743e-16 -1.5518286801930896
0.3699999999990607 -4.1252413879016267e-16 -1.5907972490600562
0.3799999999990316 -5.394450160018878e-16 -1.6273658122894694
0.3899999999990024 -8.02316538047379e-16 -1.6614238495627218
0.39999999999897323 -6.13101404934517e-16 -1.6928689844724831
0.409999999998944 -9.032373560114792e-16 -1.7216071549195406
0.4199999999989148 -5.964484943456982e-16 -1.747552770437306
0.4299999999988857 -1.068554021339311e-15 -1.770628855973327
0.43999999999885653 -1.2134163178218168e-15 -1.790767181699442
0.44999999999882734 -1.1919271913180956e-15 -1.8079083784654209
0.45999999999879804 -1.0231338076152741e-15 -1.822002038554621
0.4699999999987688 -1.4895115849943582e-15 -1.8330068014445844
0.4799999999987397 -1.3219016037536695e-15 -1.8408904243202977
0.4899999999987105 -1.256287310377966e-15 -1.845629837133164
0.4999999999986922 -1.2582216823383806e-15 -1.8472111820443236
0.5099999999987077 -1.5383048576324376e-15 -1.8456298371368682
0.519999999998734 -1.7201073270926324e-15 -1.8408904243276387
0.5299999999987605 -1.2438870777747793e-15 -1.8330068014554608
0.5399999999987868 -1.4583012724121324e-15 -1.8220020385689069
0.5499999999988131 -1.2048774414302997e-15 -1.807908378482964
0.5599999999988395 -1.7305808689995308e-15 -1.7907671817200703
0.569999999998866 -1.7002350201067371e-15 -1.7706288559968428
0.5799999999988924 -1.4891650738698451e-15 -1.7475527704634897
0.5899999999989187 -1.646889571691361e-15 -1.7216071549481564
0.599999999998945 -1.457486977498405e-15 -1.69286898450329
0.6099999999989715 -1.439672417574178e-15 -1.6614238495954696
0.6199999999989978 -1.539038469939041e-15 -1.6273658123239128
0.6299999999990242 -1.4594884948538547e-15 -1.5907972490959463
0.6399999999990506 -1.430907839893166e-15 -1.5518286802301848
0.6499999999990769 -1.6179619631623714e-15 -1.5105785869997004
0.6599999999991032 -1.5976917795924571e-15 -1.4671732166682887
0.6699999999991295 -1.4228163040613945e-15 -1.4217463761127223
0.679999999999156 -1.5766678559922896e-15 -1.3744392146627593
0.6899999999991824 -1.582349032925336e-15 -1.3253999968285435
0.6999999999992087 -1.4614663799942578e-15 -1.274783865621724
0.7099999999992351 -1.523712042175197e-15 -1.222752597212262
0.7199999999992615 -1.5698360793749472e-15 -1.169474347697324
0.7299999999992879 -1.48615783378511e-15 -1.1151233927918174
0.7399999999993142 -1.4663291945113585e-15 -1.0598798612821076
0.7499999999993405 -1.4721467976009358e-15 -1.0039294631150295
0.759999999999367 -1.312155869784513e-15 -0.9474632130236494
0.7699999999993933 -9.787695465565443e-16 -0.8906771506191323
0.7799999999994197 -1.114237586648794e-15 -0.8337720579046228
0.789999999999446 -1.1683025761069953e-15 -0.7769531751922336
0.7999999999994724 -1.0549008577259823e-15 -0.720429916427915
0.8099999999994988 -9.717259715549893e-16 -0.6644155849513481
0.8199999999995252 -1.0411611916529842e-15 -0.609127090738874
0.8299999999995517 -8.701569005301412e-16 -0.5547846701969348
0.839999999999578 -8.347900960245895e-16 -0.5016116095915663
0.8499999999996044 -7.476150303479391e-16 -0.4498339732161414
0.8599999999996307 -6.583847928442301e-16 -0.39968033741482795
0.869999999999657 -6.320906131757379e-16 -0.351381531593123
0.8799999999996835 -5.637972682506983e-16 -0.30517038735943736
0.8899999999997098 -4.485894425318357e-16 -0.2612814969529553
0.8999999999997362 -3.570334949516521e-16 -0.21995098212304037
0.9099999999997626 -3.5937887611521965e-16 -0.18141627463428858
0.9199999999997889 -2.554842178302666e-16 -0.14591590957897213
0.9299999999998153 -2.1814752897671885e-16 -0.11368933268520988
0.9399999999998417 -1.5897512503048995e-16 -0.08497672281472113
0.9499999999998682 -1.1685094965215626e-16 -0.060018830848588466
0.9599999999998945 -7.083778159808494e-17 -0.03905683616315142
0.9699999999999208 -4.052293415915049e-17 -0.02233222190101837
0.9799999999999472 -2.1174295989452796e-17 -0.01008667024435228
0.9899999999999736 -5.0608958109082586e-18 -0.0025619788991187963

CELLS 100 300
2 0 2
2 2 3
2 3 4
2 4 5
2 5 6
2 6 7
2 7 8
2 8 9
2 9 10
2 10 11
2 11 12
2 12 13
2 13 14
2 14 15
2 15 16
2 16 17
2 17 18
2 18 19
2 19 20
2 20 21
2 21 22
2 22 23
2 23 24
2 24 25
2 25 26
2 26 27
2 27 28
2 28 29
2 29 30
2 30 31
2 31 32
2 32 33
2 33 34
2 34 35
2 35 36
2 36 37
2 37 38
2 38 39
2 39 40
2 40 41
2 41 42
2 42 43
2 43 44
2 44 45
2 45 46
2 46 47
2 47 48
2 48 49
2 49 50
2 50 51
2 51 52
2 52 53
2 53 54
2 54 55
2 55 56
2 56 57
2 57 58
2 58 59
2 59 60
2 60 61
2 61 62
2 62 63
2 63 64
2 64 65
2 65 66
2 66 67
2 67 68
2 68 69
2 69 70
2 70 71
2 71 72
2 72 73
2 73 74
2 74 75
2 75 76
2 76 77
2 77 78
2 78 79
2 79 80
2 80 81
2 81 82
2 82 83
2 83 84
2 84 85
2 85 86
2 86 87
2 87 88
2 88 89
2 89 90
2 90 91
2 91 92
2 92 93
2 93 94
2 94 95
2 95 96
2 96 97
2 97 98
2 98 99
2 99 100
2 100 1

CELL_TYPES 100
3
3
3
3
3
3
3
3
3
3
3
3
3
3
3
3
3
3
3
3
3
3
3
3
3
3
3
3
3
3
3
3
3
3
3
3
3
3
3
3
3
3
3
3
3
3
3
3
3
3
3
3
3
3
3
3
3
3
3
3
3
3
3
3
3
3
3
3
3
3
3
3
3
3
3
3
3
3
3
3
3
3
3
3
3
3
3
3
3
3
3
3
3
3
3
3
3
3
3
3

POINT_DATA 101
SCALARS DISPL float 1
LOOKUP_TABLE default
0.0
0.0
0.0003515844581174384
0.0013842098752206826
0.0030646864964856725
0.005359832036345838
0.00823648006275103
0.011661491458167847
0.015601768791394096
0.020024273434315117
0.024896045257946586
0.030184224742400498
0.03585607733580124
0.04187901989769255
0.04822064906309868
0.05484877136417258
0.06173143494724591
0.06883696272415292
0.07613398679793251
0.08359148400436954
0.09117881241238036
0.09886574862798582
0.10662252574852522
0.11441987181585148
0.12222904861953336
0.13002189070358114
0.13777084443287071
0.14544900697830837
0.153030165082848
0.16048883347373544
0.16780029278978592
0.17494062689616344
0.1818867594629535
0.1886164896878459
0.19510852704744525
0.2013425249661082
0.20729911329576414
0.21295992950489973
0.2183076484797697
0.22332601084594425
0.2279998497234965
0.23231511583445766
0.2362589008866476
0.23981945916356837
0.2429862272557708
0.2457498418749094
0.24810215569762997
0.25003625119242945
0.2515464523887195
0.2526283345534738
0.253278731747059
0.25349574223610444
0.2532787317475673
0.2526283345544812
0.25154645239021206
0.25003625119438994
0.24810215570003746
0.24574984187774024
0.2429862272589979
0.2398194591671616
0.2362589008905746
0.23231511583868536
0.22799984972799053
0.22332601085067094
0.21830764848469497
0.21295992950999035
0.20729911330098624
0.20134252497142827
0.1951085270528307
0.18861648969326372
0.18188675946837152
0.1749406269015512
0.16780029279511435
0.16048883347897783
0.15303016508797962
0.14544900698330684
0.13777084443771614
0.13002189070825543
0.12222904862402349
0.11441987182014857
0.10662252575262261
0.09886574863187837
0.09117881241606524
0.08359148400784462
0.07613398680119611
0.06883696272720487
0.061731434950086574
0.05484877136680163
0.04822064906551686
0.041879019899904356
0.03585607733781064
0.030184224744208153
0.02489604525955304
0.020024273435721492
0.015601768792602059
0.011661491459178793
0.008236480063567017
0.00535983203697087
0.0030646864969249635
0.0013842098754800398
0.0003515844582028811

