# vtk DataFile Version 2.0
mesh vtk view
ASCII
DATASET UNSTRUCTURED_GRID
POINTS 101 double
0.0 0.0 0.0
1.0 0.0 0.0
0.009999999999981059 8.802769154483044e-14 -0.005356864969582922
0.019999999999962274 2.4744872317836446e-13 -0.021090310506966747
0.029999999999942933 3.7441249688062193e-13 -0.046694645786345225
0.039999999999921675 4.713706854647702e-13 -0.08166429378615706
0.049999999999899424 5.408309564376025e-13 -0.12549391903461596
0.059999999999878095 5.852610238862132e-13 -0.17767860223355925
0.06999999999986019 6.072355064525777e-13 -0.23771405923248848
0.07999999999984483 6.092199238635447e-13 -0.3050969018255138
0.08999999999982951 5.940181125387434e-13 -0.3793249378472178
0.09999999999981421 5.642105422397034e-13 -0.4598975080479061
0.1099999999997989 5.226507744345732e-13 -0.5463158572346544
0.1199999999997826 4.719908944887263e-13 -0.6380835371723965
0.12999999999976042 4.1525889786681163e-13 -0.7347068387487768
0.13999999999973223 3.562908285772159e-13 -0.8356952509182197
0.14999999999970293 2.9764820470349333e-13 -0.9405619439541053
0.15999999999967385 2.4133655488702066e-13 -1.0488242745540473
0.16999999999964463 1.9002558910497858e-13 -1.1600043103620477
0.17999999999961544 1.4492302289676872e-13 -1.2736293714919713
0.18999999999958628 1.0519874843664183e-13 -1.3892325866603115
0.19999999999955706 7.092060572615396e-14 -1.5063534615626961
0.20999999999952787 4.1675544651540467e-14 -1.6245384571576957
0.2199999999994987 1.9336419604333368e-14 -1.743341575553285
0.2299999999994695 5.881108156737487e-15 -1.8623249512261364
0.23999999999944038 1.2895293433628462e-15 -1.9810594453418664
0.24999999999941108 8.25224952066419e-16 -2.099125240984872
0.2599999999993819 1.2862024090992023e-15 -2.216112437150067
0.26999999999935265 7.105901627283386e-16 -2.3316216393956135
0.27999999999932357 7.236736054349644e-16 -2.4452645451054393
0.2899999999992944 5.158648252461483e-16 -2.556664521362635
0.2999999999992652 6.037666682672868e-16 -2.6654571734906063
0.30999999999923594 3.73298682286181e-16 -2.7712909023771313
0.31999999999920675 1.8309730399387406e-16 -2.8738274487577673
0.32999999999917773 -8.98501027285831e-17 -2.9727424226990924
0.33999999999914854 -4.746328402129017e-16 -3.0677258165890002
0.34999999999911924 -6.515734128367347e-16 -3.1584825000107175
0.35999999999909 -7.298894674115838e-16 -3.2447326949491884
0.36999999999906075 -8.625504720157948e-16 -3.3262124298528453
0.37999999999903167 -1.1279304880039475e-15 -3.4026739711507097
0.38999999999900253 -1.6775709431899744e-15 -3.473886230903873
0.39999999999897334 -1.2819393012267178e-15 -3.539635149351556
0.40999999999894404 -1.888587198933093e-15 -3.5997240511954036
0.41999999999891485 -1.24711957908646e-15 -3.653973974550731
0.4299999999988858 -2.2342493173458326e-15 -3.7022239715805934
0.4399999999988566 -2.537143209991072e-15 -3.744331379917016
0.44999999999882745 -2.4922114000287458e-15 -3.7801720640640624
0.4599999999987981 -2.1392797795592097e-15 -3.809640626068753
0.46999999999876885 -3.1144333140791128e-15 -3.832650584838677
0.4799999999987398 -2.763976080575855e-15 -3.849134523578805
0.4899999999987106 -2.6267825580630203e-15 -3.8590442049147984
0.4999999999986923 -2.630827153980251e-15 -3.862350653365404
0.5099999999987078 -3.2164556114132792e-15 -3.8590442049225433
0.5199999999987341 -3.596588047557323e-15 -3.849134523594154
0.5299999999987606 -2.60085479898363e-15 -3.8326505848614185
0.5399999999987869 -3.0491753877708227e-15 -3.809640626098624
0.5499999999988132 -2.5192891957179e-15 -3.7801720641007437
0.5599999999988395 -3.618487271544474e-15 -3.7443313799601476
0.569999999998866 -3.555036860223178e-15 -3.702223971629763
0.5799999999988924 -3.1137087908187675e-15 -3.653973974605479
0.5899999999989187 -3.4434963771728463e-15 -3.599724051255237
0.599999999998945 -3.047472771133029e-15 -3.539635149415971
0.6099999999989715 -3.0102241458369178e-15 -3.4738862309723464
0.6199999999989978 -3.2179895280543587e-15 -3.402673971222727
0.6299999999990242 -3.0516577619671517e-15 -3.326212429927889
0.6399999999990506 -2.9918982106857113e-15 -3.2447326950267508
0.6499999999990769 -3.3830113775213228e-15 -3.158482500090283
0.6599999999991033 -3.3406282664205925e-15 -3.067725816670059
0.6699999999991296 -2.9749795448556437e-15 -2.972742422781147
0.6799999999991561 -3.2966691534384243e-15 -2.8738274488403155
0.6899999999991825 -3.308547977934794e-15 -2.771290902459682
0.6999999999992088 -3.055793339987994e-15 -2.6654571735726966
0.7099999999992352 -3.185943360911776e-15 -2.5566645214438206
0.7199999999992616 -3.2823845296021627e-15 -2.445264545185314
0.7299999999992879 -3.107420925187049e-15 -2.3316216394738003
0.7399999999993142 -3.0659610430692046e-15 -2.2161124372262253
0.7499999999993405 -3.078125122256503e-15 -2.0991252410586987
0.759999999999367 -2.743598636822164e-15 -1.9810594454130854
0.7699999999993933 -2.0465181428000475e-15 -1.8623249512945497
0.7799999999994197 -2.3297694993565696e-15 -1.7433415756187571
0.789999999999446 -2.442814477314627e-15 -1.6245384572201251
0.7999999999994724 -2.2057017934270543e-15 -1.5063534616220045
0.8099999999994988 -2.031790667796796e-15 -1.3892325867164554
0.8199999999995252 -2.176973400728967e-15 -1.2736293715449187
0.8299999999995517 -1.8194189738357502e-15 -1.160004310411773
0.839999999999578 -1.7454702007786875e-15 -1.0488242746005478
0.8499999999996044 -1.5631950634547822e-15 -0.9405619439973867
0.8599999999996307 -1.3766227486742995e-15 -0.8356952509582768
0.869999999999657 -1.3216440093674523e-15 -0.734706838785621
0.8799999999996835 -1.1788488336150967e-15 -0.6380835372060963
0.8899999999997098 -9.379597434756567e-16 -0.5463158572652703
0.8999999999997362 -7.465245803534545e-16 -0.45989750807544816
0.9099999999997626 -7.514285591500049e-16 -0.37932493787169436
0.9199999999997889 -5.34194273645103e-16 -0.3050969018469418
0.9299999999998153 -4.561266514967759e-16 -0.23771405925089342
0.9399999999998417 -3.3240253415466087e-16 -0.1776786022489624
0.9499999999998682 -2.4432471290905404e-16 -0.12549391904704862
0.9599999999998945 -1.4811536152326852e-16 -0.08166429379568026
0.9699999999999208 -8.472977142367831e-17 -0.04669464579303841
0.9799999999999472 -4.4273527977946764e-17 -0.021090310510918406
0.9899999999999736 -1.0581873059171816e-17 -0.0053568649708847565

CELLS 100 300
2 0 2
2 2 3
2 3 4
2 4 5
2 5 6
2 6 7
2 7 8
2 8 9
2 9 10
2 10 11
2 11 12
2 12 13
2 13 14
2 14 15
2 15 16
2 16 17
2 17 18
2 18 19
2 19 20
2 20 21
2 21 22
2 22 23
2 23 24
2 24 25
2 25 26
2 26 27
2 27 28
2 28 29
2 29 30
2 30 31
2 31 32
2 32 33
2 33 34
2 34 35
2 35 36
2 36 37
2 37 38
2 38 39
2 39 40
2 40 41
2 41 42
2 42 43
2 43 44
2 44 45
2 45 46
2 46 47
2 47 48
2 48 49
2 49 50
2 50 51
2 51 52
2 52 53
2 53 54
2 54 55
2 55 56
2 56 57
2 57 58
2 58 59
2 59 60
2 60 61
2 61 62
2 62 63
2 63 64
2 64 65
2 65 66
2 66 67
2 67 68
2 68 69
2 69 70
2 70 71
2 71 72
2 72 73
2 73 74
2 74 75
2 75 76
2 76 77
2 77 78
2 78 79
2 79 80
2 80 81
2 81 82
2 82 83
2 83 84
2 84 85
2 85 86
2 86 87
2 87 88
2 88 89
2 89 90
2 90 91
2 91 92
2 92 93
2 93 94
2 94 95
2 95 96
2 96 97
2 97 98
2 98 99
2 99 100
2 100 1

CELL_TYPES 100
3
3
3
3
3
3
3
3
3
3
3
3
3
3
3
3
3
3
3
3
3
3
3
3
3
3
3
3
3
3
3
3
3
3
3
3
3
3
3
3
3
3
3
3
3
3
3
3
3
3
3
3
3
3
3
3
3
3
3
3
3
3
3
3
3
3
3
3
3
3
3
3
3
3
3
3
3
3
3
3
3
3
3
3
3
3
3
3
3
3
3
3
3
3
3
3
3
3
3
3

POINT_DATA 101
SCALARS DISPL float 1
LOOKUP_TABLE default
0.0
0.0
0.0003515844581174384
0.0013842098752206826
0.0030646864964856725
0.005359832036345838
0.00823648006275103
0.011661491458167847
0.015601768791394096
0.020024273434315117
0.024896045257946586
0.030184224742400498
0.03585607733580124
0.04187901989769255
0.04822064906309868
0.05484877136417258
0.06173143494724591
0.06883696272415292
0.07613398679793251
0.08359148400436954
0.09117881241238036
0.09886574862798582
0.10662252574852522
0.11441987181585148
0.12222904861953336
0.13002189070358114
0.13777084443287071
0.14544900697830837
0.153030165082848
0.16048883347373544
0.16780029278978592
0.17494062689616344
0.1818867594629535
0.1886164896878459
0.19510852704744525
0.2013425249661082
0.20729911329576414
0.21295992950489973
0.2183076484797697
0.22332601084594425
0.2279998497234965
0.23231511583445766
0.2362589008866476
0.23981945916356837
0.2429862272557708
0.2457498418749094
0.24810215569762997
0.25003625119242945
0.2515464523887195
0.2526283345534738
0.253278731747059
0.25349574223610444
0.2532787317475673
0.2526283345544812
0.25154645239021206
0.25003625119438994
0.24810215570003746
0.24574984187774024
0.2429862272589979
0.2398194591671616
0.2362589008905746
0.23231511583868536
0.22799984972799053
0.22332601085067094
0.21830764848469497
0.21295992950999035
0.20729911330098624
0.20134252497142827
0.1951085270528307
0.18861648969326372
0.18188675946837152
0.1749406269015512
0.16780029279511435
0.16048883347897783
0.15303016508797962
0.14544900698330684
0.13777084443771614
0.13002189070825543
0.12222904862402349
0.11441987182014857
0.10662252575262261
0.09886574863187837
0.09117881241606524
0.08359148400784462
0.07613398680119611
0.06883696272720487
0.061731434950086574
0.05484877136680163
0.04822064906551686
0.041879019899904356
0.03585607733781064
0.030184224744208153
0.02489604525955304
0.020024273435721492
0.015601768792602059
0.011661491459178793
0.008236480063567017
0.00535983203697087
0.0030646864969249635
0.0013842098754800398
0.0003515844582028811

