# vtk DataFile Version 2.0
mesh vtk view
ASCII
DATASET UNSTRUCTURED_GRID
POINTS 101 double
0.0 0.0 0.0
1.0 0.0 0.0
0.009999999999980396 0.0034936075898540004 8.409145005914451e-14
0.019999999999960816 0.013754550333488946 2.39169955534691e-13
0.029999999999940633 0.030453029865129832 3.690315060312791e-13
0.03999999999991854 0.053259322040295334 4.764450482953949e-13
0.04999999999989547 0.08184386024696616 5.647809376211791e-13
0.05999999999987318 0.11587734929070344 6.383279580525114e-13
0.06999999999985418 0.1550309082038061 6.999679092581952e-13
0.07999999999983774 0.198976240330274 7.514565996748282e-13
0.08999999999982146 0.24738582904050263 7.966341680753998e-13
0.09999999999980526 0.29993315743253113 8.368579014145882e-13
0.10999999999978896 0.3562929503805518 8.712202661791885e-13
0.11999999999977179 0.4161414372964961 9.05299969140963e-13
0.12999999999974862 0.4791566339766699 9.29319088417996e-13
0.1399999999997196 0.5450186419131072 9.272777303900536e-13
0.1499999999996895 0.6134099634580228 8.98218906233481e-13
0.15999999999965972 0.684015831240307 8.404010330986629e-13
0.16999999999962986 0.7565245502452004 7.59686952026194e-13
0.17999999999960015 0.8306278509817707 6.507849136181813e-13
0.18999999999957037 0.9060212521781946 5.2313884670921e-13
0.19999999999954046 0.9824044314620727 3.8970265873145355e-13
0.20999999999951074 1.0594816025020573 2.5212369592758265e-13
0.21999999999948108 1.1369618971077018 1.4657455062676544e-13
0.2299999999994515 1.214559750807248 1.0130114680509587e-13
0.23999999999942212 1.291995290447834 9.078353736310744e-14
0.24999999999939249 1.368994722388839 8.117783549881945e-14
0.259999999999363 1.445290719887792 7.173876366222786e-14
0.2699999999993335 1.5206228083087128 6.119346088523172e-14
0.2799999999993041 1.594737746815032 5.0482050725068564e-14
0.2899999999992745 1.6673899052435464 3.93668064891524e-14
0.2999999999992449 1.7383416348921306 2.815609162677361e-14
0.30999999999921524 1.8073636319919424 1.6611041945437987e-14
0.31999999999918594 1.8742352926748664 4.172321996906956e-15
0.3299999999991568 1.9387450582886643 -7.224945597693362e-15
0.33999999999912756 2.000690749955872 -1.869788088200919e-14
0.34999999999909825 2.0598798913177223 -2.9157715397805174e-14
0.3599999999990692 2.1161300184513543 -3.944219686868777e-14
0.36999999999904004 2.169268975997043 -4.874388731259699e-14
0.37999999999901113 2.219135198582421 -5.7854528136921e-14
0.3899999999989821 2.265577976682114 -6.538793140536494e-14
0.39999999999895314 2.308457706104312 -7.25671184882973e-14
0.40999999999892406 2.347646120350091 -7.845897313797531e-14
0.41999999999889503 2.3830265051468342 -8.428363426775288e-14
0.429999999998866 2.414493894513928 -8.829607794182252e-14
0.4399999999988369 2.4419552477766064 -9.164297506130512e-14
0.44999999999880785 2.4653296070027384 -9.524873458609154e-14
0.4599999999987787 2.484548234396897 -9.669818897220502e-14
0.4699999999987497 2.499554729246639 -9.911416083765065e-14
0.47999999999872073 2.5103051240769383 -9.910252579618427e-14
0.4899999999986917 2.516767959730617 -9.929110761086226e-14
0.49999999999867367 2.51892433915468 -9.864265185014919e-14
0.5099999999986895 2.5167679597351613 -9.754012687911573e-14
0.5199999999987162 2.5103051240859426 -9.524561800929138e-14
0.5299999999987429 2.4995547292599807 -9.229502735801567e-14
0.5399999999987695 2.48454823441443 -8.828058269451139e-14
0.5499999999987963 2.4653296070242825 -8.368118997734966e-14
0.5599999999988232 2.4419552478019613 -7.940411028446915e-14
0.5699999999988501 2.414493894542859 -7.325499204928503e-14
0.579999999998877 2.3830265051790707 -6.878340745264316e-14
0.5899999999989037 2.3476461203853356 -6.3285338368322e-14
0.5999999999989305 2.308457706142257 -5.844593462817802e-14
0.6099999999989573 2.265577976722435 -5.4270705390468753e-14
0.6199999999989839 2.219135198624799 -5.0888138037155556e-14
0.6299999999990107 2.1692689760411556 -4.652961431051619e-14
0.6399999999990376 2.116130018496886 -4.2484924053832653e-14
0.6499999999990644 2.059879891364368 -3.671225713782858e-14
0.6599999999990916 2.0006907500033226 -3.260881598803576e-14
0.6699999999991186 1.9387450583366224 -2.741079025327371e-14
0.679999999999146 1.8742352927230255 -2.277194325684057e-14
0.6899999999991733 1.8073636320399993 -1.801238141521242e-14
0.6999999999992005 1.738341634939789 -1.4718884623047226e-14
0.7099999999992279 1.6673899052905257 -1.0244424556900885e-14
0.7199999999992552 1.5947377468610737 -5.898132556389413e-15
0.7299999999992827 1.5206228083535753 -1.7150672872312913e-15
0.7399999999993098 1.445290719931255 2.520332357855669e-15
0.7499999999993366 1.3689947224307 6.610351328968396e-15
0.7599999999993637 1.2919952904879128 1.0411844439675673e-14
0.7699999999993908 1.2145597508453894 1.43130247879133e-14
0.7799999999994179 1.1369618971437871 1.82089712251445e-14
0.789999999999445 1.059481602535984 2.0187754486715394e-14
0.799999999999472 0.9824044314937269 2.3134148893012386e-14
0.809999999999499 0.906021252207492 2.5510280202347306e-14
0.8199999999995259 0.8306278510086524 2.6973180369172906e-14
0.8299999999995527 0.7565245502696243 2.822533780156495e-14
0.8399999999995791 0.6840158312622736 2.8530658516261084e-14
0.8499999999996056 0.6134099634775618 2.842939049978282e-14
0.8599999999996322 0.5450186419302632 2.8219869969970624e-14
0.8699999999996586 0.47915663399151165 2.6979596965240487e-14
0.8799999999996851 0.41614143730914177 2.564575212741485e-14
0.8899999999997116 0.3562929503911334 2.3706947152071744e-14
0.8999999999997381 0.2999331574411656 2.142601125269458e-14
0.9099999999997646 0.24738582904732534 1.876804074938669e-14
0.919999999999791 0.1989762403354406 1.6234593240982303e-14
0.9299999999998175 0.15503090820749418 1.3304525336756665e-14
0.9399999999998438 0.11587734929310535 1.0423004575991925e-14
0.9499999999998702 0.08184386024829839 7.700068034524901e-15
0.9599999999998963 0.0532593220408118 5.277011067979349e-15
0.9699999999999224 0.030453029865114334 3.1628492066494165e-15
0.9799999999999485 0.013754550333249342 1.4899723936331178e-15
0.9899999999999742 0.0034936075897183745 3.920599607619661e-16

CELLS 100 300
2 0 2
2 2 3
2 3 4
2 4 5
2 5 6
2 6 7
2 7 8
2 8 9
2 9 10
2 10 11
2 11 12
2 12 13
2 13 14
2 14 15
2 15 16
2 16 17
2 17 18
2 18 19
2 19 20
2 20 21
2 21 22
2 22 23
2 23 24
2 24 25
2 25 26
2 26 27
2 27 28
2 28 29
2 29 30
2 30 31
2 31 32
2 32 33
2 33 34
2 34 35
2 35 36
2 36 37
2 37 38
2 38 39
2 39 40
2 40 41
2 41 42
2 42 43
2 43 44
2 44 45
2 45 46
2 46 47
2 47 48
2 48 49
2 49 50
2 50 51
2 51 52
2 52 53
2 53 54
2 54 55
2 55 56
2 56 57
2 57 58
2 58 59
2 59 60
2 60 61
2 61 62
2 62 63
2 63 64
2 64 65
2 65 66
2 66 67
2 67 68
2 68 69
2 69 70
2 70 71
2 71 72
2 72 73
2 73 74
2 74 75
2 75 76
2 76 77
2 77 78
2 78 79
2 79 80
2 80 81
2 81 82
2 82 83
2 83 84
2 84 85
2 85 86
2 86 87
2 87 88
2 88 89
2 89 90
2 90 91
2 91 92
2 92 93
2 93 94
2 94 95
2 95 96
2 96 97
2 97 98
2 98 99
2 99 100
2 100 1

CELL_TYPES 100
3
3
3
3
3
3
3
3
3
3
3
3
3
3
3
3
3
3
3
3
3
3
3
3
3
3
3
3
3
3
3
3
3
3
3
3
3
3
3
3
3
3
3
3
3
3
3
3
3
3
3
3
3
3
3
3
3
3
3
3
3
3
3
3
3
3
3
3
3
3
3
3
3
3
3
3
3
3
3
3
3
3
3
3
3
3
3
3
3
3
3
3
3
3
3
3
3
3
3
3

POINT_DATA 101
SCALARS DISPL float 1
LOOKUP_TABLE default
0.0
0.0
0.0003515844582169249
0.0013842098755055742
0.003064686496929367
0.005359832036923327
0.008236480063438904
0.01166149145894428
0.015601768792238868
0.020024273435209582
0.02489604525887372
0.03018422474334474
0.035856077336748345
0.04187901989863015
0.04822064906401611
0.054848771365061035
0.061731434948097706
0.06883696272496163
0.07613398679869399
0.08359148400508222
0.09117881241304567
0.09886574862860695
0.1066225257491074
0.11441987181640047
0.12222904862005267
0.13002189070407402
0.13777084443333945
0.14544900697875293
0.15303016508326855
0.1604888334741321
0.16780029279015873
0.17494062689651257
0.1818867594632791
0.18861648968814798
0.19510852704772327
0.20134252496636132
0.2072991132959913
0.21295992950510012
0.21830764847994183
0.22332601084608764
0.22799984972361073
0.23231511583454278
0.23625890088670382
0.23981945916359637
0.24298622725577154
0.2457498418748839
0.24810215569757935
0.25003625119235434
0.25154645238862033
0.2526283345533505
0.25327873174691123
0.2534957422359316
0.2532787317473686
0.25262833455425665
0.25154645238996304
0.25003625119411876
0.2481021556997475
0.24574984187743554
0.24298622725868307
0.23981945916684053
0.2362589008902507
0.2323151158383614
0.22799984972766849
0.22332601085035242
0.21830764848438114
0.21295992950968226
0.20729911330068557
0.20134252497113658
0.1951085270525496
0.18861648969299455
0.18188675946811536
0.17494062690130877
0.16780029279488656
0.16048883347876555
0.15303016508778336
0.1454490069831269
0.1377708444375522
0.1300218907081074
0.12222904862389107
0.11441987182003197
0.10662252575252165
0.09886574863179252
0.09117881241599404
0.0835914840077875
0.07613398680115192
0.06883696272717228
0.06173143495006405
0.05484877136678755
0.048220649065509734
0.04187901989990277
0.035856077337813236
0.030184224744213683
0.024896045259560334
0.020024273435729528
0.015601768792610023
0.011661491459186
0.008236480063572976
0.005359832036975303
0.0030646864969278076
0.0013842098754814614
0.000351584458203276

