# vtk DataFile Version 2.0
mesh vtk view
ASCII
DATASET UNSTRUCTURED_GRID
POINTS 101 double
0.0 0.0 0.0
1.0 0.0 0.0
0.00999999999998127 -0.0011645358632846677 -2.8030483353048194e-14
0.019999999999962742 -0.004584850111162986 -7.972331851156371e-14
0.02999999999994367 -0.010151009955043285 -1.2301050201042647e-13
0.03999999999992268 -0.017753107346765124 -1.5881501609846513e-13
0.04999999999990069 -0.02728128674898874 -1.882603125403932e-13
0.05999999999987967 -0.03862578309690118 -2.1277598601750396e-13
0.06999999999986212 -0.051676969401268744 -2.3332263641939856e-13
0.07999999999984711 -0.06632541344342473 -2.5048553322494296e-13
0.0899999999998321 -0.08246194301350095 -2.6554472269180016e-13
0.09999999999981708 -0.09997771914417712 -2.78952633804863e-13
0.10999999999980208 -0.11876431679351737 -2.9040675539306307e-13
0.11999999999978607 -0.1387138124321655 -3.0176665638032126e-13
0.1299999999997642 -0.15971887799222342 -3.0977302947266557e-13
0.13999999999973625 -0.18167288063770254 -3.0909257679668483e-13
0.14999999999970723 -0.2044699878193411 -2.9940630207782723e-13
0.15999999999967837 -0.22800527708010251 -2.801336776995545e-13
0.16999999999964938 -0.2521748500817337 -2.5322898400873155e-13
0.17999999999962035 -0.27687595032725715 -2.1692830453939395e-13
0.18999999999959136 -0.30200708405939847 -1.7437961556973684e-13
0.19999999999956236 -0.32746814382069117 -1.2990088624381796e-13
0.20999999999953337 -0.3531605341673527 -8.404123197586095e-14
0.21999999999950431 -0.37898729903590095 -4.8858183542255185e-14
0.22999999999947524 -0.40485325026908303 -3.3767048935031983e-14
0.2399999999994462 -0.43066509681594506 -3.026117912103584e-14
0.24999999999941702 -0.45633157412961334 -2.7059278499606504e-14
0.25999999999938794 -0.481763573295931 -2.391292122074264e-14
0.2699999999993588 -0.506874269436238 -2.0397820295077257e-14
0.27999999999932984 -0.5315792489383444 -1.6827350241689535e-14
0.28999999999930076 -0.5557966350811826 -1.3122268829717478e-14
0.29999999999927174 -0.5794472116307107 -9.385363875591211e-15
0.3099999999992426 -0.6024545439973147 -5.537013981812667e-15
0.31999999999921347 -0.6247450975582893 -1.3907739989689862e-15
0.3299999999991844 -0.6462483527628886 2.4083151992311223e-15
0.33999999999915526 -0.6668969166519578 6.2326269606697345e-15
0.34999999999912595 -0.6866266304392412 9.719238465935064e-15
0.3599999999990967 -0.7053766728171186 1.3147398956229266e-14
0.3699999999990674 -0.7230896586656816 1.6247962437532343e-14
0.3799999999990383 -0.7397117328608076 1.9284842712307016e-14
0.38999999999900903 -0.7551926588940385 2.179597713512166e-14
0.3999999999989798 -0.7694859020347714 2.418903949609912e-14
0.4099999999989505 -0.7825487067833643 2.6152991045991792e-14
0.41999999999892124 -0.7943421683822788 2.8094544755917647e-14
0.42999999999889216 -0.8048312981713099 2.943202598060753e-14
0.4399999999988629 -0.8139850825922028 3.0547658353768395e-14
0.44999999999883367 -0.82177653566758 3.1749578195363875e-14
0.4599999999988043 -0.8281827447989664 3.22327296574017e-14
0.469999999998775 -0.8331849097488803 3.303805361255025e-14
0.4799999999987459 -0.8367683746923135 3.303417526539478e-14
0.48999999999871663 -0.8389226532435397 3.3097035870287446e-14
0.49999999999869826 -0.839641446384894 3.2880883950049756e-14
0.5099999999987136 -0.8389226532450546 3.251337562637194e-14
0.5199999999987398 -0.836768374695315 3.1748539336430485e-14
0.5299999999987661 -0.8331849097533276 3.076500911933858e-14
0.5399999999987924 -0.8281827448048106 2.942686089817049e-14
0.5499999999988185 -0.8217765356747615 2.789372999244991e-14
0.5599999999988449 -0.8139850826006545 2.6468036761489735e-14
0.5699999999988711 -0.8048312981809537 2.441833068309503e-14
0.5799999999988974 -0.7943421683930242 2.2927802484214405e-14
0.5899999999989236 -0.7825487067951125 2.1095112789440683e-14
0.5999999999989497 -0.7694859020474196 1.948197820939269e-14
0.609999999998976 -0.7551926589074789 1.8090235130156266e-14
0.6199999999990022 -0.7397117328749336 1.6962712679051867e-14
0.6299999999990286 -0.7230896586803858 1.5509871436838744e-14
0.6399999999990548 -0.7053766728322958 1.4161641351277563e-14
0.6499999999990809 -0.6866266304547899 1.2237419045942869e-14
0.6599999999991071 -0.6668969166677747 1.0869605329345262e-14
0.6699999999991332 -0.6462483527788746 9.136930084424577e-15
0.6799999999991593 -0.6247450975743424 7.590647752280195e-15
0.6899999999991854 -0.6024545440133335 6.004127138404145e-15
0.6999999999992115 -0.5794472116465968 4.906294874349079e-15
0.7099999999992376 -0.5557966350968424 3.4148081856336307e-15
0.7199999999992636 -0.5315792489536917 1.966044185463139e-15
0.7299999999992897 -0.5068742694511922 5.716890957437642e-16
0.7399999999993156 -0.48176357331041875 -8.401107859518904e-16
0.7499999999993419 -0.456331574143567 -2.203450442989467e-15
0.7599999999993681 -0.43066509682930465 -3.470614813225227e-15
0.7699999999993941 -0.40485325028179675 -4.77100826263777e-15
0.7799999999994203 -0.3789872990479294 -6.069657075048172e-15
0.7899999999994464 -0.35316053417866156 -6.7292514955718034e-15
0.7999999999994725 -0.32746814383124256 -7.711382964337468e-15
0.8099999999994987 -0.3020070840691642 -8.503426734115776e-15
0.819999999999525 -0.2768759503362177 -8.991060123057642e-15
0.8299999999995513 -0.252174850089875 -9.40844593385499e-15
0.8399999999995776 -0.22800527708742474 -9.51021950542037e-15
0.849999999999604 -0.2044699878258541 -9.476463499927616e-15
0.8599999999996303 -0.1816728806434212 -9.40662332332355e-15
0.8699999999996565 -0.1597188779971707 -8.993198988413503e-15
0.8799999999996829 -0.1387138124363807 -8.548584042471623e-15
0.8899999999997092 -0.11876431679704456 -7.902315717357254e-15
0.8999999999997356 -0.09997771914705528 -7.142003750898199e-15
0.9099999999997619 -0.08246194301577518 -6.2560135831289014e-15
0.9199999999997882 -0.06632541344514692 -5.4115310803274384e-15
0.9299999999998145 -0.0516769694024981 -4.434841778918892e-15
0.9399999999998411 -0.038625783097701816 -3.4743348586639778e-15
0.9499999999998675 -0.02728128674943282 -2.5666893448416358e-15
0.9599999999998939 -0.01775310734693728 -1.7590036893264511e-15
0.9699999999999203 -0.010151009955038119 -1.0542830688831397e-15
0.9799999999999468 -0.004584850111083118 -4.96657464544373e-16
0.9899999999999733 -0.001164535863239459 -1.3068665358732214e-16

CELLS 100 300
2 0 2
2 2 3
2 3 4
2 4 5
2 5 6
2 6 7
2 7 8
2 8 9
2 9 10
2 10 11
2 11 12
2 12 13
2 13 14
2 14 15
2 15 16
2 16 17
2 17 18
2 18 19
2 19 20
2 20 21
2 21 22
2 22 23
2 23 24
2 24 25
2 25 26
2 26 27
2 27 28
2 28 29
2 29 30
2 30 31
2 31 32
2 32 33
2 33 34
2 34 35
2 35 36
2 36 37
2 37 38
2 38 39
2 39 40
2 40 41
2 41 42
2 42 43
2 43 44
2 44 45
2 45 46
2 46 47
2 47 48
2 48 49
2 49 50
2 50 51
2 51 52
2 52 53
2 53 54
2 54 55
2 55 56
2 56 57
2 57 58
2 58 59
2 59 60
2 60 61
2 61 62
2 62 63
2 63 64
2 64 65
2 65 66
2 66 67
2 67 68
2 68 69
2 69 70
2 70 71
2 71 72
2 72 73
2 73 74
2 74 75
2 75 76
2 76 77
2 77 78
2 78 79
2 79 80
2 80 81
2 81 82
2 82 83
2 83 84
2 84 85
2 85 86
2 86 87
2 87 88
2 88 89
2 89 90
2 90 91
2 91 92
2 92 93
2 93 94
2 94 95
2 95 96
2 96 97
2 97 98
2 98 99
2 99 100
2 100 1

CELL_TYPES 100
3
3
3
3
3
3
3
3
3
3
3
3
3
3
3
3
3
3
3
3
3
3
3
3
3
3
3
3
3
3
3
3
3
3
3
3
3
3
3
3
3
3
3
3
3
3
3
3
3
3
3
3
3
3
3
3
3
3
3
3
3
3
3
3
3
3
3
3
3
3
3
3
3
3
3
3
3
3
3
3
3
3
3
3
3
3
3
3
3
3
3
3
3
3
3
3
3
3
3
3

POINT_DATA 101
SCALARS DISPL float 1
LOOKUP_TABLE default
0.0
0.0
0.0003515844582169249
0.0013842098755055742
0.003064686496929367
0.005359832036923327
0.008236480063438904
0.01166149145894428
0.015601768792238868
0.020024273435209582
0.02489604525887372
0.03018422474334474
0.035856077336748345
0.04187901989863015
0.04822064906401611
0.054848771365061035
0.061731434948097706
0.06883696272496163
0.07613398679869399
0.08359148400508222
0.09117881241304567
0.09886574862860695
0.1066225257491074
0.11441987181640047
0.12222904862005267
0.13002189070407402
0.13777084443333945
0.14544900697875293
0.15303016508326855
0.1604888334741321
0.16780029279015873
0.17494062689651257
0.1818867594632791
0.18861648968814798
0.19510852704772327
0.20134252496636132
0.2072991132959913
0.21295992950510012
0.21830764847994183
0.22332601084608764
0.22799984972361073
0.23231511583454278
0.23625890088670382
0.23981945916359637
0.24298622725577154
0.2457498418748839
0.24810215569757935
0.25003625119235434
0.25154645238862033
0.2526283345533505
0.25327873174691123
0.2534957422359316
0.2532787317473686
0.25262833455425665
0.25154645238996304
0.25003625119411876
0.2481021556997475
0.24574984187743554
0.24298622725868307
0.23981945916684053
0.2362589008902507
0.2323151158383614
0.22799984972766849
0.22332601085035242
0.21830764848438114
0.21295992950968226
0.20729911330068557
0.20134252497113658
0.1951085270525496
0.18861648969299455
0.18188675946811536
0.17494062690130877
0.16780029279488656
0.16048883347876555
0.15303016508778336
0.1454490069831269
0.1377708444375522
0.1300218907081074
0.12222904862389107
0.11441987182003197
0.10662252575252165
0.09886574863179252
0.09117881241599404
0.0835914840077875
0.07613398680115192
0.06883696272717228
0.06173143495006405
0.05484877136678755
0.048220649065509734
0.04187901989990277
0.035856077337813236
0.030184224744213683
0.024896045259560334
0.020024273435729528
0.015601768792610023
0.011661491459186
0.008236480063572976
0.005359832036975303
0.0030646864969278076
0.0013842098754814614
0.000351584458203276

