# vtk DataFile Version 2.0
mesh vtk view
ASCII
DATASET UNSTRUCTURED_GRID
POINTS 101 double
0.0 0.0 0.0
1.0 -0.3274875424141308 0.0
0.009999999999981052 0.0019071325870686508 0.0
0.01999999999996226 0.007338329923444508 0.0
0.02999999999994291 0.01585863263914116 0.0
0.03999999999992165 0.02703422928485904 0.0
0.04999999999989939 0.040433691199104685 0.0
0.05999999999987805 0.0556295955648496 0.0
0.06999999999986013 0.07220047363216635 0.0
0.07999999999984476 0.08973302167677374 0.0
0.08999999999982944 0.10782451314111428 0.0
0.09999999999981413 0.1260853516030505 0.0
0.1099999999997988 0.14414170576665314 0.0
0.1199999999997825 0.16163816959100813 0.0
0.1299999999997603 0.17824039297790276 0.0
0.1399999999997321 0.193637631131771 0.0
0.1499999999997028 0.20754516378115082 0.0
0.1599999999996737 0.2197065388981974 0.0
0.1699999999996445 0.22989559935257622 0.0
0.1799999999996153 0.23791825506293404 0.0
0.1899999999995861 0.24361396763097154 0.0
0.1999999999995569 0.24685691912359353 0.0
0.2099999999995277 0.2475568415654705 0.0
0.2199999999994985 0.24565948877087632 0.0
0.2299999999994693 0.2411467373317392 0.0
0.2399999999994402 0.2340363088349139 0.0
0.2499999999994109 0.22438111065276664 0.0
0.2599999999993817 0.2122681978817043 0.0
0.2699999999993525 0.19781736413650639 0.0
0.2799999999993234 0.18117937389151345 0.0
0.2899999999992942 0.16253385383620425 0.0
0.299999999999265 0.1420868652311938 0.0
0.3099999999992358 0.12006818346229864 0.0
0.3199999999992066 0.09672831484673398 0.0
0.3299999999991775 0.07233528420578947 0.0
0.3399999999991483 0.047171229742835975 0.0
0.349999999999119 0.021528844321438628 0.0
0.3599999999990898 -0.004292295701832477 0.0
0.3699999999990606 -0.02998947139580077 0.0
0.3799999999990315 -0.055260588225768716 0.0
0.3899999999990023 -0.0798079249194518 0.0
0.3999999999989731 -0.10334182016132622 0.0
0.4099999999989439 -0.12558425368638815 0.0
0.4199999999989147 -0.14627227952006988 0.0
0.4299999999988856 -0.16516127080900903 0.0
0.4399999999988564 -0.1820279378861439 0.0
0.4499999999988272 -0.19667308388580015 0.0
0.4599999999987979 -0.20892406533697952 0.0
0.4699999999987687 -0.21863692867807627 0.0
0.4799999999987396 -0.22569819750901698 0.0
0.4899999999987104 -0.23002628958217688 0.0
0.4999999999986921 -0.23157254697956925 0.0
0.5099999999987076 -0.23032186757636783 0.0
0.5199999999987339 -0.2262929306936756 0.0
0.5299999999987604 -0.21953801473838735 0.0
0.5399999999987867 -0.21014240955615623 0.0
0.549999999998813 -0.19822343112491034 0.0
0.5599999999988394 -0.18392905103200752 0.0
0.5699999999988659 -0.16743615784979995 0.0
0.5799999999988923 -0.1489484719968123 0.0
0.5899999999989186 -0.12869413989001116 0.0
0.5999999999989449 -0.1069230371079058 0.0
0.6099999999989714 -0.08390381384759728 0.0
0.6199999999989977 -0.0599207191286937 0.0
0.6299999999990241 -0.03527024293612315 0.0
0.6399999999990504 -0.010257617769481999 0.0
0.6499999999990768 0.014806777147594048 0.0
0.6599999999991032 0.03961106446894591 0.0
0.6699999999991295 0.06384552485828565 0.0
0.679999999999156 0.08720621515355088 0.0
0.6899999999991824 0.1093985033787494 0.0
0.6999999999992087 0.13014047626130867 0.0
0.7099999999992351 0.14916617627086784 0.0
0.7199999999992615 0.16622862705023891 0.0
0.7299999999992879 0.18110260843654694 0.0
0.7399999999993142 0.19358714503895852 0.0
0.7499999999993405 0.2035076755125399 0.0
0.759999999999367 0.2107178732040453 0.0
0.7699999999993933 0.21510109269786504 0.0
0.7799999999994197 0.21657142090836173 0.0
0.789999999999446 0.2150743156938918 0.0
0.7999999999994724 0.21058681944993124 0.0
0.8099999999994988 0.20311733971382318 0.0
0.8199999999995252 0.19270499342015138 0.0
0.8299999999995517 0.17941851601966646 0.0
0.839999999999578 0.16335474115300866 0.0
0.8499999999996044 0.14463666088948918 0.0
0.8599999999996307 0.12341108063804423 0.0
0.869999999999657 0.09984588665129843 0.0
0.8799999999996835 0.07412694751519952 0.0
0.8899999999997098 0.04645467408905374 0.0
0.8999999999997362 0.017040264981086774 0.0
0.9099999999997626 -0.013898333237290516 0.0
0.9199999999997889 -0.04614072030554197 0.0
0.9299999999998153 -0.07946855928314486 0.0
0.9399999999998417 -0.11367028418731466 0.0
0.9499999999998682 -0.14854596645912482 0.0
0.9599999999998945 -0.1839123094514136 0.0
0.9699999999999208 -0.21960774183604534 0.0
0.9799999999999472 -0.2554975832616535 0.0
0.9899999999999736 -0.29147925877039027 0.0

CELLS 100 300
2 0 2
2 2 3
2 3 4
2 4 5
2 5 6
2 6 7
2 7 8
2 8 9
2 9 10
2 10 11
2 11 12
2 12 13
2 13 14
2 14 15
2 15 16
2 16 17
2 17 18
2 18 19
2 19 20
2 20 21
2 21 22
2 22 23
2 23 24
2 24 25
2 25 26
2 26 27
2 27 28
2 28 29
2 29 30
2 30 31
2 31 32
2 32 33
2 33 34
2 34 35
2 35 36
2 36 37
2 37 38
2 38 39
2 39 40
2 40 41
2 41 42
2 42 43
2 43 44
2 44 45
2 45 46
2 46 47
2 47 48
2 48 49
2 49 50
2 50 51
2 51 52
2 52 53
2 53 54
2 54 55
2 55 56
2 56 57
2 57 58
2 58 59
2 59 60
2 60 61
2 61 62
2 62 63
2 63 64
2 64 65
2 65 66
2 66 67
2 67 68
2 68 69
2 69 70
2 70 71
2 71 72
2 72 73
2 73 74
2 74 75
2 75 76
2 76 77
2 77 78
2 78 79
2 79 80
2 80 81
2 81 82
2 82 83
2 83 84
2 84 85
2 85 86
2 86 87
2 87 88
2 88 89
2 89 90
2 90 91
2 91 92
2 92 93
2 93 94
2 94 95
2 95 96
2 96 97
2 97 98
2 98 99
2 99 100
2 100 1

CELL_TYPES 100
3
3
3
3
3
3
3
3
3
3
3
3
3
3
3
3
3
3
3
3
3
3
3
3
3
3
3
3
3
3
3
3
3
3
3
3
3
3
3
3
3
3
3
3
3
3
3
3
3
3
3
3
3
3
3
3
3
3
3
3
3
3
3
3
3
3
3
3
3
3
3
3
3
3
3
3
3
3
3
3
3
3
3
3
3
3
3
3
3
3
3
3
3
3
3
3
3
3
3
3

POINT_DATA 101
SCALARS MODE4_2.4281_Hz float 1
LOOKUP_TABLE default
0.0
-0.25471253298876845
0.0014833253454978397
0.00570758994045684
0.012334492052665348
0.021026622777112588
0.03144842648819254
0.04326746321710525
0.056155923936129386
0.06979235019304625
0.08386351022086667
0.0980663845801504
0.11211021559628578
0.1257185763485619
0.13863141676059104
0.1506070464358219
0.16142401627422842
0.1708828635874869
0.1788076883853371
0.1850475317156154
0.18947753037964454
0.19199982598501722
0.19254421010647707
0.19106849126623715
0.1875585734802416
0.18202824020493305
0.17451864161881853
0.16509748724132559
0.15385794988394944
0.1409172908045105
0.1264152196503811
0.11051200629092851
0.09338636491512117
0.07523313376968199
0.056260776604502925
0.036688734244427985
0.016744656694452267
-0.0033384522125363717
-0.023325144418956157
-0.04298045750893123
-0.062072830492906954
-0.08037697123658706
-0.09767664175607968
-0.11376732851560992
-0.1284587661847848
-0.1415772850225564
-0.15296795413340014
-0.1624964952620952
-0.17005094452739267
-0.17554304250701322
-0.17890933634169315
-0.18011198098410944
-0.179139230337175
-0.1760056127617477
-0.17075178924096795
-0.16344409632145487
-0.15417377976381916
-0.1430559285804503
-0.13022812277206663
-0.11584881155307625
-0.10009544213667536
-0.08316236219503785
-0.06525852188146455
-0.04660500376676177
-0.027432411172540232
-0.007978147154041555
0.011516382225906483
0.030808605698069046
0.04965763044533329
0.06782705623053958
0.08508772485013844
0.10122037042546232
0.11601813709956389
0.12928893215018583
0.14085758433953652
0.15056777947474553
0.1582837476208644
0.16389167915870193
0.16730084987611726
0.16844443848428137
0.1672800233174714
0.16378974846105765
0.15798015311075136
0.14988166154900665
0.13954773468196283
0.1270536875634512
0.11249518069182493
0.0959863960518122
0.07765791183989879
0.05765429251182185
0.03613141318037513
0.013253539429734158
-0.010809814740114847
-0.035887226904310426
-0.06180887944244601
-0.08841022103457807
-0.11553575169043043
-0.14304290735109948
-0.17080602142803528
-0.19872034253684165
-0.226706090154748

