# vtk DataFile Version 2.0
mesh vtk view
ASCII
DATASET UNSTRUCTURED_GRID
POINTS 101 double
0.0 0.0 0.0
1.0 0.0 0.0
0.009999999999981184 -0.0006987215179708006 -1.6818290011828915e-14
0.019999999999962548 -0.0027509100666977915 -4.783399110693823e-14
0.029999999999943364 -0.00609060597302597 -7.380630120625588e-14
0.03999999999992227 -0.010651864408059075 -9.528900965907906e-14
0.04999999999990017 -0.016368772049393243 -1.129561875242359e-13
0.05999999999987902 -0.023175469858140705 -1.2766559161050238e-13
0.06999999999986133 -0.031006181640761247 -1.3999358185163914e-13
0.07999999999984617 -0.039795248066054834 -1.5029131993496578e-13
0.08999999999983103 -0.04947716580810056 -1.5932683361508007e-13
0.0999999999998159 -0.059986631486506264 -1.6737158028291777e-13
0.10999999999980077 -0.07125859007611042 -1.7424405323583782e-13
0.11999999999978464 -0.08322828745929928 -1.8105999382819274e-13
0.12999999999976264 -0.09583132679533404 -1.8586381768359934e-13
0.1399999999997346 -0.10900372838262151 -1.8545554607801088e-13
0.14999999999970545 -0.12268199269160464 -1.7964378124669634e-13
0.1599999999996765 -0.1368031662480615 -1.6808020661973271e-13
0.1699999999996474 -0.1513049100490402 -1.5193739040523892e-13
0.17999999999961833 -0.16612557019635427 -1.3015698272363634e-13
0.18999999999958925 -0.18120425043563906 -1.0462776934184209e-13
0.19999999999956017 -0.19648088629241467 -7.794053174629077e-14
0.2099999999995311 -0.2118963205004116 -5.0424739185516564e-14
0.219999999999502 -0.22739237942154056 -2.9314910125353106e-14
0.22999999999947285 -0.24291195016144979 -2.026022936101919e-14
0.2399999999994438 -0.25839905808956704 -1.8156707472621504e-14
0.24999999999941458 -0.273798944477768 -1.6235567099763902e-14
0.25999999999938544 -0.2890581439775586 -1.4347752732445582e-14
0.26999999999935625 -0.3041245616617428 -1.2238692177046352e-14
0.2799999999993273 -0.3189475493630067 -1.009641014501372e-14
0.28999999999929815 -0.3334779810487095 -7.873361297830487e-15
0.299999999999269 -0.34766832697842637 -5.631218325354727e-15
0.3099999999992399 -0.3614727263983888 -3.3222083890876e-15
0.3199999999992107 -0.3748470585349736 -8.344643993813917e-16
0.32999999999918167 -0.3877490116577332 1.4449891195386734e-15
0.3399999999991525 -0.4001381499911747 3.73957617640184e-15
0.3499999999991232 -0.41197597826354476 5.831543079561039e-15
0.35999999999909393 -0.42322600369027114 7.88843937373756e-15
0.3699999999990647 -0.433853795199409 9.748777462519406e-15
0.37999999999903555 -0.4438270397164845 1.1570905627384209e-14
0.38999999999900636 -0.45311559533642315 1.3077586281072996e-14
0.3999999999989771 -0.4616915412208628 1.451342369765947e-14
0.4099999999989478 -0.46952922407001857 1.5691794627595073e-14
0.4199999999989186 -0.4766053010293672 1.6856726853550588e-14
0.42999999999888955 -0.482898778902786 1.7659215588364516e-14
0.4399999999988603 -0.4883910495553217 1.8328595012261038e-14
0.4499999999988311 -0.493065921400548 1.9049746917218325e-14
0.45999999999880176 -0.49690964687937983 1.933963779444102e-14
0.46999999999877246 -0.49991094584932816 1.9822832167530147e-14
0.4799999999987434 -0.5020610248153881 1.982050515923687e-14
0.48999999999871413 -0.5033535919461237 1.9858221522172468e-14
0.49999999999869577 -0.5037848678309365 1.9728530370029853e-14
0.5099999999987113 -0.5033535919470327 1.950802537582316e-14
0.5199999999987375 -0.502061024817189 1.9049123601858293e-14
0.5299999999987638 -0.4999109458519966 1.8459005471603147e-14
0.5399999999987901 -0.49690964688288636 1.765611653890229e-14
0.5499999999988163 -0.4930659214048569 1.6736237995469946e-14
0.5599999999988426 -0.48839104956039264 1.588082205689384e-14
0.569999999998869 -0.4828987789085722 1.4650998409857015e-14
0.5799999999988954 -0.4766053010358145 1.3756681490528642e-14
0.5899999999989216 -0.4695292240770675 1.265706767366441e-14
0.5999999999989478 -0.46169154122845174 1.1689186925635613e-14
0.6099999999989741 -0.4531155953444873 1.0854141078093759e-14
0.6199999999990005 -0.4438270397249602 1.0177627607431119e-14
0.6299999999990268 -0.4338537952082314 9.305922862103246e-15
0.639999999999053 -0.42322600369937746 8.496984810766536e-15
0.6499999999990792 -0.4119759782728739 7.342451427565721e-15
0.6599999999991055 -0.4001381500006648 6.521763197607157e-15
0.6699999999991317 -0.3877490116673248 5.482158050654746e-15
0.679999999999158 -0.37484705854460537 4.554388651368117e-15
0.6899999999991842 -0.36147272640800016 3.602476283042487e-15
0.6999999999992104 -0.3476683269879581 2.9437769246094472e-15
0.7099999999992366 -0.3334779810581054 2.0488849113801786e-15
0.7199999999992627 -0.318947549372215 1.1796265112778833e-15
0.7299999999992889 -0.3041245616707153 3.430134574462585e-16
0.7399999999993151 -0.28905814398625124 -5.040664715711342e-16
0.7499999999993413 -0.27379894448614017 -1.3220702657936802e-15
0.7599999999993676 -0.2583990580975828 -2.0823688879351362e-15
0.7699999999993937 -0.24291195016907804 -2.862604957582662e-15
0.77999999999942 -0.22739237942875762 -3.641794245028903e-15
0.7899999999994463 -0.21189632050719692 -4.037550897343082e-15
0.7999999999994725 -0.19648088629874555 -4.626829778602481e-15
0.8099999999994988 -0.18120425044149854 -5.102056040469465e-15
0.8199999999995251 -0.1661255702017306 -5.394636073834585e-15
0.8299999999995514 -0.151304910053925 -5.645067560312994e-15
0.8399999999995778 -0.13680316625245484 -5.706131703252221e-15
0.8499999999996042 -0.12268199269551246 -5.685878099956569e-15
0.8599999999996304 -0.10900372838605271 -5.643973993994129e-15
0.8699999999996567 -0.0958313267983024 -5.395919393048101e-15
0.8799999999996831 -0.0832282874618284 -5.129150425482974e-15
0.8899999999997095 -0.07125859007822673 -4.741389430414352e-15
0.8999999999997359 -0.05998663148823316 -4.285202250538919e-15
0.9099999999997621 -0.04947716580946511 -3.753608149877341e-15
0.9199999999997884 -0.039795248067088146 -3.2469186481964626e-15
0.9299999999998149 -0.031006181641498858 -2.660905067351335e-15
0.9399999999998413 -0.023175469858621088 -2.0846009151983865e-15
0.9499999999998677 -0.01636877204965969 -1.5400136069049814e-15
0.9599999999998942 -0.010651864408162369 -1.0554022135958705e-15
0.9699999999999205 -0.006090605973022871 -6.325698413298838e-16
0.979999999999947 -0.0027509100666498706 -2.979944787266238e-16
0.9899999999999735 -0.0006987215179436754 -7.841199215239327e-17

CELLS 100 300
2 0 2
2 2 3
2 3 4
2 4 5
2 5 6
2 6 7
2 7 8
2 8 9
2 9 10
2 10 11
2 11 12
2 12 13
2 13 14
2 14 15
2 15 16
2 16 17
2 17 18
2 18 19
2 19 20
2 20 21
2 21 22
2 22 23
2 23 24
2 24 25
2 25 26
2 26 27
2 27 28
2 28 29
2 29 30
2 30 31
2 31 32
2 32 33
2 33 34
2 34 35
2 35 36
2 36 37
2 37 38
2 38 39
2 39 40
2 40 41
2 41 42
2 42 43
2 43 44
2 44 45
2 45 46
2 46 47
2 47 48
2 48 49
2 49 50
2 50 51
2 51 52
2 52 53
2 53 54
2 54 55
2 55 56
2 56 57
2 57 58
2 58 59
2 59 60
2 60 61
2 61 62
2 62 63
2 63 64
2 64 65
2 65 66
2 66 67
2 67 68
2 68 69
2 69 70
2 70 71
2 71 72
2 72 73
2 73 74
2 74 75
2 75 76
2 76 77
2 77 78
2 78 79
2 79 80
2 80 81
2 81 82
2 82 83
2 83 84
2 84 85
2 85 86
2 86 87
2 87 88
2 88 89
2 89 90
2 90 91
2 91 92
2 92 93
2 93 94
2 94 95
2 95 96
2 96 97
2 97 98
2 98 99
2 99 100
2 100 1

CELL_TYPES 100
3
3
3
3
3
3
3
3
3
3
3
3
3
3
3
3
3
3
3
3
3
3
3
3
3
3
3
3
3
3
3
3
3
3
3
3
3
3
3
3
3
3
3
3
3
3
3
3
3
3
3
3
3
3
3
3
3
3
3
3
3
3
3
3
3
3
3
3
3
3
3
3
3
3
3
3
3
3
3
3
3
3
3
3
3
3
3
3
3
3
3
3
3
3
3
3
3
3
3
3

POINT_DATA 101
SCALARS DISPL float 1
LOOKUP_TABLE default
0.0
0.0
0.0003515844582169249
0.0013842098755055742
0.003064686496929367
0.005359832036923327
0.008236480063438904
0.01166149145894428
0.015601768792238868
0.020024273435209582
0.02489604525887372
0.03018422474334474
0.035856077336748345
0.04187901989863015
0.04822064906401611
0.054848771365061035
0.061731434948097706
0.06883696272496163
0.07613398679869399
0.08359148400508222
0.09117881241304567
0.09886574862860695
0.1066225257491074
0.11441987181640047
0.12222904862005267
0.13002189070407402
0.13777084443333945
0.14544900697875293
0.15303016508326855
0.1604888334741321
0.16780029279015873
0.17494062689651257
0.1818867594632791
0.18861648968814798
0.19510852704772327
0.20134252496636132
0.2072991132959913
0.21295992950510012
0.21830764847994183
0.22332601084608764
0.22799984972361073
0.23231511583454278
0.23625890088670382
0.23981945916359637
0.24298622725577154
0.2457498418748839
0.24810215569757935
0.25003625119235434
0.25154645238862033
0.2526283345533505
0.25327873174691123
0.2534957422359316
0.2532787317473686
0.25262833455425665
0.25154645238996304
0.25003625119411876
0.2481021556997475
0.24574984187743554
0.24298622725868307
0.23981945916684053
0.2362589008902507
0.2323151158383614
0.22799984972766849
0.22332601085035242
0.21830764848438114
0.21295992950968226
0.20729911330068557
0.20134252497113658
0.1951085270525496
0.18861648969299455
0.18188675946811536
0.17494062690130877
0.16780029279488656
0.16048883347876555
0.15303016508778336
0.1454490069831269
0.1377708444375522
0.1300218907081074
0.12222904862389107
0.11441987182003197
0.10662252575252165
0.09886574863179252
0.09117881241599404
0.0835914840077875
0.07613398680115192
0.06883696272717228
0.06173143495006405
0.05484877136678755
0.048220649065509734
0.04187901989990277
0.035856077337813236
0.030184224744213683
0.024896045259560334
0.020024273435729528
0.015601768792610023
0.011661491459186
0.008236480063572976
0.005359832036975303
0.0030646864969278076
0.0013842098754814614
0.000351584458203276

