# vtk DataFile Version 2.0
mesh vtk view
ASCII
DATASET UNSTRUCTURED_GRID
POINTS 101 double
0.0 0.0 0.0
1.0 0.0 0.0
0.009999999999981048 -4.2100200304049346e-14 0.0025619788984961806
0.019999999999962253 -1.1834504152008739e-13 0.01008667024246236
0.0299999999999429 -1.7906684633421052e-13 0.022332221897817285
0.03999999999992163 -2.2543815391793364e-13 0.039056836158596855
0.04999999999989937 -2.58658283513636e-13 0.06001883084264242
0.059999999999878026 -2.7990744620644986e-13 0.08497672280735444
0.0699999999998601 -2.9041698134688506e-13 0.11368933267640756
0.07999999999984472 -2.913660505434345e-13 0.145915909568724
0.08999999999982941 -2.840956190402686e-13 0.18141627462258247
0.09999999999981408 -2.698398245494234e-13 0.21995098210986816
0.10999999999979876 -2.4996341386001334e-13 0.26128149693831304
0.11999999999978245 -2.257347756250431e-13 0.30517038734332014
0.12999999999976025 -1.9860208158847517e-13 0.351381531575502
0.13999999999973203 -1.703999614934511e-13 0.3996803373956704
0.14999999999970273 -1.4235348920601858e-13 0.44983397319544177
0.15999999999967365 -1.1542183059814033e-13 0.501611609569327
0.16999999999964444 -9.088180348498978e-14 0.5547846701731532
0.17999999999961522 -6.931101095062854e-14 0.6091270907135515
0.18999999999958603 -5.031244490448089e-14 0.6644155849244969
0.1999999999995568 -3.3918550564682336e-14 0.7204299163995505
0.20999999999952762 -1.993178222464979e-14 0.7769531751623764
0.21999999999949843 -9.247852854246394e-15 0.8337720578733104
0.2299999999994692 -2.812703901048364e-15 0.8906771505864133
0.2399999999994401 -6.167314250865788e-16 0.9474632129895885
0.2499999999994108 -3.9467280316220046e-16 1.0039294630797215
0.2599999999993816 -6.151402826126621e-16 1.0598798612456843
0.26999999999935237 -3.398474691309446e-16 1.115123392754424
0.2799999999993233 -3.4610476781672215e-16 1.1694743476591234
0.2899999999992941 -2.4671795990033183e-16 1.2227525971734343
0.2999999999992649 -2.8875797178000675e-16 1.2747838655824641
0.30999999999923566 -1.7853415239773876e-16 1.325399996789063
0.3199999999992065 -8.756827582315718e-17 1.3744392146232802
0.3299999999991774 4.297178826149627e-17 1.4217463760734794
0.3399999999991482 2.269983148844313e-16 1.4671732166295222
0.3499999999991189 3.1162206700887314e-16 1.510578586961648
0.3599999999990897 3.4907757137075753e-16 1.5518286801930903
0.36999999999906047 4.125241387901628e-16 1.5907972490600568
0.3799999999990314 5.39445016001888e-16 1.62736581228947
0.3899999999990022 8.023165380473792e-16 1.6614238495627223
0.399999999998973 6.131014049345173e-16 1.6928689844724838
0.40999999999894376 9.032373560114794e-16 1.7216071549195413
0.4199999999989146 5.964484943456984e-16 1.7475527704373066
0.4299999999988855 1.0685540213393113e-15 1.7706288559733276
0.4399999999988563 1.2134163178218174e-15 1.7907671816994426
0.4499999999988271 1.191927191318096e-15 1.8079083784654215
0.4599999999987978 1.0231338076152745e-15 1.8220020385546216
0.46999999999876857 1.4895115849943586e-15 1.833006801444585
0.4799999999987395 1.32190160375367e-15 1.8408904243202984
0.4899999999987103 1.2562873103779666e-15 1.8456298371331648
0.499999999998692 1.258221682338381e-15 1.8472111820443242
0.5099999999987075 1.5383048576324382e-15 1.845629837136869
0.5199999999987338 1.720107327092633e-15 1.8408904243276394
0.5299999999987602 1.2438870777747799e-15 1.8330068014554615
0.5399999999987866 1.4583012724121327e-15 1.8220020385689075
0.5499999999988129 1.2048774414303001e-15 1.8079083784829646
0.5599999999988393 1.7305808689995315e-15 1.790767181720071
0.5699999999988657 1.7002350201067377e-15 1.7706288559968435
0.5799999999988922 1.4891650738698457e-15 1.7475527704634903
0.5899999999989185 1.6468895716913617e-15 1.721607154948157
0.5999999999989448 1.4574869774984054e-15 1.6928689845032907
0.6099999999989713 1.4396724175741783e-15 1.6614238495954703
0.6199999999989976 1.5390384699390415e-15 1.6273658123239132
0.629999999999024 1.4594884948538553e-15 1.590797249095947
0.6399999999990503 1.4309078398931665e-15 1.5518286802301855
0.6499999999990766 1.617961963162372e-15 1.510578586999701
0.6599999999991032 1.5976917795924577e-15 1.4671732166682891
0.6699999999991295 1.4228163040613951e-15 1.4217463761127227
0.679999999999156 1.5766678559922902e-15 1.3744392146627598
0.6899999999991824 1.5823490329253366e-15 1.325399996828544
0.6999999999992087 1.4614663799942584e-15 1.2747838656217245
0.7099999999992351 1.5237120421751977e-15 1.2227525972122624
0.7199999999992615 1.5698360793749478e-15 1.1694743476973244
0.7299999999992879 1.4861578337851107e-15 1.1151233927918178
0.7399999999993142 1.466329194511359e-15 1.059879861282108
0.7499999999993405 1.4721467976009364e-15 1.00392946311503
0.759999999999367 1.3121558697845133e-15 0.9474632130236498
0.7699999999993933 9.787695465565447e-16 0.8906771506191326
0.7799999999994197 1.1142375866487944e-15 0.8337720579046232
0.789999999999446 1.1683025761069959e-15 0.7769531751922338
0.7999999999994724 1.0549008577259827e-15 0.7204299164279153
0.8099999999994988 9.717259715549897e-16 0.6644155849513484
0.8199999999995252 1.0411611916529844e-15 0.6091270907388743
0.8299999999995517 8.701569005301415e-16 0.554784670196935
0.839999999999578 8.347900960245898e-16 0.5016116095915665
0.8499999999996044 7.476150303479394e-16 0.44983397321614155
0.8599999999996307 6.583847928442303e-16 0.3996803374148281
0.869999999999657 6.320906131757382e-16 0.35138153159312313
0.8799999999996835 5.637972682506985e-16 0.30517038735943747
0.8899999999997098 4.485894425318359e-16 0.26128149695295544
0.8999999999997362 3.570334949516522e-16 0.21995098212304046
0.9099999999997626 3.593788761152198e-16 0.18141627463428864
0.9199999999997889 2.554842178302667e-16 0.14591590957897219
0.9299999999998153 2.1814752897671895e-16 0.11368933268520992
0.9399999999998417 1.5897512503049e-16 0.08497672281472116
0.9499999999998682 1.168509496521563e-16 0.060018830848588486
0.9599999999998945 7.083778159808496e-17 0.039056836163151434
0.9699999999999208 4.0522934159150503e-17 0.022332221901018377
0.9799999999999472 2.1174295989452805e-17 0.010086670244352284
0.9899999999999736 5.060895810908261e-18 0.002561978899118797

CELLS 100 300
2 0 2
2 2 3
2 3 4
2 4 5
2 5 6
2 6 7
2 7 8
2 8 9
2 9 10
2 10 11
2 11 12
2 12 13
2 13 14
2 14 15
2 15 16
2 16 17
2 17 18
2 18 19
2 19 20
2 20 21
2 21 22
2 22 23
2 23 24
2 24 25
2 25 26
2 26 27
2 27 28
2 28 29
2 29 30
2 30 31
2 31 32
2 32 33
2 33 34
2 34 35
2 35 36
2 36 37
2 37 38
2 38 39
2 39 40
2 40 41
2 41 42
2 42 43
2 43 44
2 44 45
2 45 46
2 46 47
2 47 48
2 48 49
2 49 50
2 50 51
2 51 52
2 52 53
2 53 54
2 54 55
2 55 56
2 56 57
2 57 58
2 58 59
2 59 60
2 60 61
2 61 62
2 62 63
2 63 64
2 64 65
2 65 66
2 66 67
2 67 68
2 68 69
2 69 70
2 70 71
2 71 72
2 72 73
2 73 74
2 74 75
2 75 76
2 76 77
2 77 78
2 78 79
2 79 80
2 80 81
2 81 82
2 82 83
2 83 84
2 84 85
2 85 86
2 86 87
2 87 88
2 88 89
2 89 90
2 90 91
2 91 92
2 92 93
2 93 94
2 94 95
2 95 96
2 96 97
2 97 98
2 98 99
2 99 100
2 100 1

CELL_TYPES 100
3
3
3
3
3
3
3
3
3
3
3
3
3
3
3
3
3
3
3
3
3
3
3
3
3
3
3
3
3
3
3
3
3
3
3
3
3
3
3
3
3
3
3
3
3
3
3
3
3
3
3
3
3
3
3
3
3
3
3
3
3
3
3
3
3
3
3
3
3
3
3
3
3
3
3
3
3
3
3
3
3
3
3
3
3
3
3
3
3
3
3
3
3
3
3
3
3
3
3
3

POINT_DATA 101
SCALARS DISPL float 1
LOOKUP_TABLE default
0.0
0.0
0.0003515844581174384
0.0013842098752206826
0.0030646864964856725
0.005359832036345838
0.00823648006275103
0.011661491458167847
0.015601768791394096
0.020024273434315117
0.024896045257946586
0.030184224742400498
0.03585607733580124
0.04187901989769255
0.04822064906309868
0.05484877136417258
0.06173143494724591
0.06883696272415292
0.07613398679793251
0.08359148400436954
0.09117881241238036
0.09886574862798582
0.10662252574852522
0.11441987181585148
0.12222904861953336
0.13002189070358114
0.13777084443287071
0.14544900697830837
0.153030165082848
0.16048883347373544
0.16780029278978592
0.17494062689616344
0.1818867594629535
0.1886164896878459
0.19510852704744525
0.2013425249661082
0.20729911329576414
0.21295992950489973
0.2183076484797697
0.22332601084594425
0.2279998497234965
0.23231511583445766
0.2362589008866476
0.23981945916356837
0.2429862272557708
0.2457498418749094
0.24810215569762997
0.25003625119242945
0.2515464523887195
0.2526283345534738
0.253278731747059
0.25349574223610444
0.2532787317475673
0.2526283345544812
0.25154645239021206
0.25003625119438994
0.24810215570003746
0.24574984187774024
0.2429862272589979
0.2398194591671616
0.2362589008905746
0.23231511583868536
0.22799984972799053
0.22332601085067094
0.21830764848469497
0.21295992950999035
0.20729911330098624
0.20134252497142827
0.1951085270528307
0.18861648969326372
0.18188675946837152
0.1749406269015512
0.16780029279511435
0.16048883347897783
0.15303016508797962
0.14544900698330684
0.13777084443771614
0.13002189070825543
0.12222904862402349
0.11441987182014857
0.10662252575262261
0.09886574863187837
0.09117881241606524
0.08359148400784462
0.07613398680119611
0.06883696272720487
0.061731434950086574
0.05484877136680163
0.04822064906551686
0.041879019899904356
0.03585607733781064
0.030184224744208153
0.02489604525955304
0.020024273435721492
0.015601768792602059
0.011661491459178793
0.008236480063567017
0.00535983203697087
0.0030646864969249635
0.0013842098754800398
0.0003515844582028811

