# vtk DataFile Version 2.0
mesh vtk view
ASCII
DATASET UNSTRUCTURED_GRID
POINTS 101 double
0.0 0.0 0.0
1.0 0.0 0.0
0.009999999999980833 0.001164535863284666 2.8030483353048153e-14
0.019999999999961778 0.004584850111162979 7.97233185115636e-14
0.02999999999994215 0.01015100995504327 1.230105020104263e-13
0.03999999999992061 0.0177531073467651 1.5881501609846487e-13
0.049999999999898084 0.0272812867489887 1.882603125403929e-13
0.05999999999987642 0.038625783096901116 2.1277598601750366e-13
0.06999999999985815 0.05167696940126867 2.3332263641939826e-13
0.07999999999984242 0.06632541344342463 2.504855332249426e-13
0.08999999999982677 0.08246194301350082 2.6554472269179976e-13
0.09999999999981117 0.09997771914417697 2.789526338048626e-13
0.10999999999979553 0.1187643167935172 2.9040675539306266e-13
0.11999999999977894 0.13871381243216527 3.017666563803208e-13
0.12999999999975642 0.1597188779922232 3.097730294726651e-13
0.13999999999972793 0.18167288063770226 3.090925767966844e-13
0.14999999999969835 0.20446998781934078 2.994063020778268e-13
0.15999999999966905 0.22800527708010218 2.801336776995541e-13
0.1699999999996396 0.2521748500817333 2.5322898400873114e-13
0.17999999999961025 0.27687595032725676 2.1692830453939362e-13
0.18999999999958087 0.302007084059398 1.7437961556973656e-13
0.19999999999955143 0.32746814382069067 1.2990088624381776e-13
0.20999999999952204 0.35316053416735216 8.404123197586082e-14
0.2199999999994927 0.3789872990359004 4.885818354225511e-14
0.22999999999946336 0.4048532502690824 3.376704893503193e-14
0.23999999999943417 0.4306650968159444 3.02611791210358e-14
0.24999999999940475 0.45633157412961267 2.7059278499606467e-14
0.2599999999993755 0.48176357329593034 2.3912921220742605e-14
0.26999999999934615 0.5068742694362373 2.0397820295077225e-14
0.27999999999931696 0.5315792489383436 1.682735024168951e-14
0.28999999999928766 0.5557966350811818 1.3122268829717459e-14
0.2999999999992583 0.5794472116307098 9.385363875591197e-15
0.30999999999922895 0.6024545439973138 5.5370139818126585e-15
0.3199999999991997 0.6247450975582883 1.3907739989689842e-15
0.3299999999991706 0.6462483527628876 -2.4083151992311187e-15
0.3399999999991414 0.6668969166519569 -6.232626960669725e-15
0.3499999999991121 0.6866266304392402 -9.71923846593505e-15
0.35999999999908294 0.7053766728171176 -1.3147398956229247e-14
0.36999999999905375 0.7230896586656805 -1.6247962437532318e-14
0.37999999999902473 0.7397117328608065 -1.9284842712306987e-14
0.3899999999989956 0.7551926588940374 -2.1795977135121628e-14
0.39999999999896646 0.7694859020347703 -2.4189039496099084e-14
0.40999999999893727 0.7825487067833632 -2.6152991045991754e-14
0.41999999999890814 0.7943421683822776 -2.8094544755917606e-14
0.42999999999887906 0.8048312981713088 -2.9432025980607485e-14
0.4399999999988499 0.8139850825922017 -3.054765835376835e-14
0.4499999999988208 0.8217765356675788 -3.1749578195363824e-14
0.45999999999879154 0.8281827447989651 -3.223272965740165e-14
0.46999999999876235 0.833184909748879 -3.30380536125502e-14
0.47999999999873333 0.8367683746923122 -3.303417526539474e-14
0.4899999999987042 0.8389226532435384 -3.3097035870287396e-14
0.49999999999868594 0.8396414463848928 -3.2880883950049706e-14
0.5099999999987016 0.8389226532450533 -3.251337562637189e-14
0.519999999998728 0.8367683746953137 -3.174853933643044e-14
0.5299999999987546 0.8331849097533264 -3.076500911933854e-14
0.5399999999987809 0.8281827448048094 -2.942686089817044e-14
0.5499999999988074 0.8217765356747603 -2.7893729992449868e-14
0.559999999998834 0.8139850826006533 -2.6468036761489697e-14
0.5699999999988606 0.8048312981809526 -2.441833068309499e-14
0.5799999999988872 0.7943421683930231 -2.292780248421437e-14
0.5899999999989136 0.7825487067951113 -2.109511278944065e-14
0.5999999999989402 0.7694859020474185 -1.948197820939266e-14
0.6099999999989667 0.7551926589074778 -1.809023513015624e-14
0.6199999999989931 0.7397117328749325 -1.696271267905184e-14
0.6299999999990197 0.7230896586803847 -1.550987143683872e-14
0.6399999999990461 0.7053766728322948 -1.4161641351277542e-14
0.6499999999990727 0.6866266304547889 -1.2237419045942851e-14
0.6599999999990993 0.6668969166677737 -1.0869605329345246e-14
0.6699999999991259 0.6462483527788737 -9.136930084424563e-15
0.6799999999991526 0.6247450975743414 -7.590647752280184e-15
0.6899999999991794 0.6024545440133326 -6.0041271384041365e-15
0.6999999999992059 0.579447211646596 -4.906294874349072e-15
0.7099999999992327 0.5557966350968415 -3.414808185633626e-15
0.7199999999992593 0.5315792489536909 -1.9660441854631362e-15
0.7299999999992861 0.5068742694511914 -5.716890957437634e-16
0.7399999999993128 0.481763573310418 8.401107859518892e-16
0.7499999999993392 0.45633157414356634 2.203450442989464e-15
0.7599999999993658 0.430665096829304 3.470614813225222e-15
0.7699999999993925 0.40485325028179614 4.771008262637763e-15
0.7799999999994192 0.3789872990479288 6.069657075048163e-15
0.7899999999994457 0.35316053417866106 6.729251495571794e-15
0.7999999999994722 0.3274681438312421 7.711382964337457e-15
0.8099999999994989 0.30200708406916377 8.503426734115763e-15
0.8199999999995254 0.2768759503362173 8.99106012305763e-15
0.829999999999552 0.2521748500898746 9.408445933854976e-15
0.8399999999995783 0.2280052770874244 9.510219505420355e-15
0.8499999999996048 0.2044699878258538 9.476463499927602e-15
0.8599999999996312 0.1816728806434209 9.406623323323536e-15
0.8699999999996576 0.15971887799717044 8.99319898841349e-15
0.879999999999684 0.13871381243638048 8.54858404247161e-15
0.8899999999997104 0.11876431679704438 7.902315717357243e-15
0.8999999999997369 0.09997771914705512 7.142003750898188e-15
0.9099999999997632 0.08246194301577506 6.256013583128892e-15
0.9199999999997895 0.06632541344514682 5.4115310803274305e-15
0.9299999999998161 0.051676969402498024 4.434841778918886e-15
0.9399999999998424 0.03862578309770175 3.4743348586639727e-15
0.9499999999998688 0.027281286749432778 2.5666893448416323e-15
0.959999999999895 0.017753107346937257 1.7590036893264486e-15
0.9699999999999214 0.010151009955038105 1.0542830688831381e-15
0.9799999999999477 0.004584850111083111 4.966574645443723e-16
0.9899999999999738 0.0011645358632394573 1.3068665358732194e-16

CELLS 100 300
2 0 2
2 2 3
2 3 4
2 4 5
2 5 6
2 6 7
2 7 8
2 8 9
2 9 10
2 10 11
2 11 12
2 12 13
2 13 14
2 14 15
2 15 16
2 16 17
2 17 18
2 18 19
2 19 20
2 20 21
2 21 22
2 22 23
2 23 24
2 24 25
2 25 26
2 26 27
2 27 28
2 28 29
2 29 30
2 30 31
2 31 32
2 32 33
2 33 34
2 34 35
2 35 36
2 36 37
2 37 38
2 38 39
2 39 40
2 40 41
2 41 42
2 42 43
2 43 44
2 44 45
2 45 46
2 46 47
2 47 48
2 48 49
2 49 50
2 50 51
2 51 52
2 52 53
2 53 54
2 54 55
2 55 56
2 56 57
2 57 58
2 58 59
2 59 60
2 60 61
2 61 62
2 62 63
2 63 64
2 64 65
2 65 66
2 66 67
2 67 68
2 68 69
2 69 70
2 70 71
2 71 72
2 72 73
2 73 74
2 74 75
2 75 76
2 76 77
2 77 78
2 78 79
2 79 80
2 80 81
2 81 82
2 82 83
2 83 84
2 84 85
2 85 86
2 86 87
2 87 88
2 88 89
2 89 90
2 90 91
2 91 92
2 92 93
2 93 94
2 94 95
2 95 96
2 96 97
2 97 98
2 98 99
2 99 100
2 100 1

CELL_TYPES 100
3
3
3
3
3
3
3
3
3
3
3
3
3
3
3
3
3
3
3
3
3
3
3
3
3
3
3
3
3
3
3
3
3
3
3
3
3
3
3
3
3
3
3
3
3
3
3
3
3
3
3
3
3
3
3
3
3
3
3
3
3
3
3
3
3
3
3
3
3
3
3
3
3
3
3
3
3
3
3
3
3
3
3
3
3
3
3
3
3
3
3
3
3
3
3
3
3
3
3
3

POINT_DATA 101
SCALARS DISPL float 1
LOOKUP_TABLE default
0.0
0.0
0.0003515844582169249
0.0013842098755055742
0.003064686496929367
0.005359832036923327
0.008236480063438904
0.01166149145894428
0.015601768792238868
0.020024273435209582
0.02489604525887372
0.03018422474334474
0.035856077336748345
0.04187901989863015
0.04822064906401611
0.054848771365061035
0.061731434948097706
0.06883696272496163
0.07613398679869399
0.08359148400508222
0.09117881241304567
0.09886574862860695
0.1066225257491074
0.11441987181640047
0.12222904862005267
0.13002189070407402
0.13777084443333945
0.14544900697875293
0.15303016508326855
0.1604888334741321
0.16780029279015873
0.17494062689651257
0.1818867594632791
0.18861648968814798
0.19510852704772327
0.20134252496636132
0.2072991132959913
0.21295992950510012
0.21830764847994183
0.22332601084608764
0.22799984972361073
0.23231511583454278
0.23625890088670382
0.23981945916359637
0.24298622725577154
0.2457498418748839
0.24810215569757935
0.25003625119235434
0.25154645238862033
0.2526283345533505
0.25327873174691123
0.2534957422359316
0.2532787317473686
0.25262833455425665
0.25154645238996304
0.25003625119411876
0.2481021556997475
0.24574984187743554
0.24298622725868307
0.23981945916684053
0.2362589008902507
0.2323151158383614
0.22799984972766849
0.22332601085035242
0.21830764848438114
0.21295992950968226
0.20729911330068557
0.20134252497113658
0.1951085270525496
0.18861648969299455
0.18188675946811536
0.17494062690130877
0.16780029279488656
0.16048883347876555
0.15303016508778336
0.1454490069831269
0.1377708444375522
0.1300218907081074
0.12222904862389107
0.11441987182003197
0.10662252575252165
0.09886574863179252
0.09117881241599404
0.0835914840077875
0.07613398680115192
0.06883696272717228
0.06173143495006405
0.05484877136678755
0.048220649065509734
0.04187901989990277
0.035856077337813236
0.030184224744213683
0.024896045259560334
0.020024273435729528
0.015601768792610023
0.011661491459186
0.008236480063572976
0.005359832036975303
0.0030646864969278076
0.0013842098754814614
0.000351584458203276

