# vtk DataFile Version 2.0
mesh vtk view
ASCII
DATASET UNSTRUCTURED_GRID
POINTS 101 double
0.0 0.0 0.0
1.0 0.0 0.0
0.009999999999981048 -5.740936405097639e-14 0.0034936075888584283
0.01999999999996225 -1.6137960207284644e-13 0.013754550330630493
0.029999999999942895 -2.4418206318301436e-13 0.030453029860659935
0.039999999999921626 -3.074156644335459e-13 0.05325932203445027
0.04999999999989937 -3.5271584115495823e-13 0.08184386023996694
0.05999999999987802 -3.816919720997044e-13 0.11587734928275606
0.06999999999986009 -3.9602315638211607e-13 0.15503090819510124
0.07999999999984471 -3.9731734165013795e-13 0.1989762403209873
0.0899999999998294 -3.8740311687309364e-13 0.2473858290307943
0.09999999999981407 -3.679633971128501e-13 0.2999331574225475
0.10999999999979874 -3.4085920071820004e-13 0.3562929503704269
0.11999999999978243 -3.0782014857960425e-13 0.4161414372863456
0.12999999999976022 -2.708210203479207e-13 0.4791566339665937
0.139999999999732 -2.3236358385470605e-13 0.5450186419031869
0.1499999999997027 -1.9411839437184352e-13 0.6134099634483298
0.15999999999967363 -1.5739340536110047e-13 0.6840158312309006
0.1699999999996444 -1.2392973202498607e-13 0.7565245502361182
0.17999999999961522 -9.451501493267528e-14 0.8306278509730249
0.189999999999586 -6.860787941520122e-14 0.9060212521697686
0.19999999999955678 -4.625256895183955e-14 0.9824044314539325
0.2099999999995276 -2.7179703033613354e-14 1.0594816024941498
0.2199999999994984 -1.2610708437608721e-14 1.1369618970999689
0.22999999999946918 -3.8355053196114055e-15 1.2145597507996546
0.23999999999944008 -8.409973978453347e-16 1.291995290440348
0.24999999999941078 -5.381901861302734e-16 1.3689947223814385
0.2599999999993816 -8.388276581081757e-16 1.445290719880479
0.26999999999935237 -4.634283669967427e-16 1.5206228083014874
0.2799999999993233 -4.719610470228029e-16 1.5947377468078956
0.2899999999992941 -3.3643358168227065e-16 1.6673899052365013
0.2999999999992649 -3.9376087060910017e-16 1.7383416348851786
0.30999999999923566 -2.4345566236055287e-16 1.807363631985086
0.3199999999992065 -1.1941128521339616e-16 1.8742352926681096
0.3299999999991774 5.859789308385855e-17 1.9387450582820174
0.3399999999991482 3.0954315666058817e-16 2.0006907499493485
0.34999999999911885 4.2493918228482705e-16 2.059879891311338
0.3599999999990897 4.76014870051033e-16 2.1161300184451233
0.36999999999906047 5.625329165320403e-16 2.1692689759909864
0.3799999999990314 7.356068400025747e-16 2.2191351985765504
0.3899999999990022 1.0940680064282445e-15 2.2655779766764397
0.39999999999897295 8.360473703652509e-16 2.308457706098842
0.40999999999894376 1.2316873036520176e-15 2.3476461203448293
0.4199999999989146 8.133388559259524e-16 2.383026505141782
0.4299999999988855 1.457119120008152e-15 2.4144938945090835
0.4399999999988563 1.6546586152115691e-15 2.4419552477719675
0.4499999999988271 1.625355260888313e-15 2.465329606998302
0.4599999999987978 1.3951824649299198e-15 2.484548234392666
0.46999999999876857 2.0311521613559437e-15 2.4995547292426163
0.4799999999987395 1.802593096027732e-15 2.510305124073134
0.4899999999987103 1.713119059606318e-15 2.516767959727043
0.499999999998692 1.7157568395523379e-15 2.518924339151351
0.5099999999987075 2.097688442226052e-15 2.516767959732094
0.5199999999987338 2.3456009005808635e-15 2.510305124083145
0.5299999999987602 1.6962096515110635e-15 2.4995547292574476
0.5399999999987866 1.9885926441983632e-15 2.484548234412147
0.5499999999988129 1.6430146928595003e-15 2.4653296070222246
0.5599999999988393 2.3598830031811793e-15 2.441955247800097
0.5699999999988657 2.3185023001455516e-15 2.4144938945411503
0.5799999999988922 2.0306796461861535e-15 2.383026505177487
0.5899999999989185 2.245758506851857e-15 2.347646120383851
0.5999999999989448 1.9874822420432804e-15 2.3084577061408513
0.6099999999989713 1.9631896603284252e-15 2.265577976721096
0.6199999999989976 2.0986888226441478e-15 2.219135198623518
0.629999999999024 1.990211583891621e-15 2.1692689760399277
0.6399999999990503 1.9512379634906816e-15 2.1161300184957077
0.6499999999990766 2.2063117679486893e-15 2.059879891363229
0.6599999999991031 2.1786706085351696e-15 2.000690750002213
0.6699999999991294 1.9402040509928117e-15 1.9387450583355312
0.6799999999991558 2.1500016218076688e-15 1.8742352927219452
0.6899999999991823 2.1577486812618227e-15 1.8073636320389237
0.6999999999992087 1.9929086999921707e-15 1.7383416349387155
0.7099999999992351 2.077789148420724e-15 1.6673899052894487
0.7199999999992615 2.14068556278402e-15 1.594737746859988
0.7299999999992879 2.026578864252424e-15 1.520622808352479
0.7399999999993142 1.999539810697308e-15 1.4452907199301475
0.7499999999993405 2.007472905819459e-15 1.3689947224295864
0.759999999999367 1.789303458797064e-15 1.2919952904867953
0.7699999999993933 1.3346857453043792e-15 1.2145597508442718
0.7799999999994197 1.5194148908847198e-15 1.136961897142668
0.789999999999446 1.5931398765095399e-15 1.0594816025348643
0.7999999999994724 1.43850116962634e-15 0.9824044314926118
0.8099999999994988 1.3250808703022588e-15 0.9060212522063843
0.8199999999995252 1.419765261344979e-15 0.830627851007556
0.8299999999995517 1.1865775916320113e-15 0.7565245502685477
0.839999999999578 1.1383501309426225e-15 0.6840158312612271
0.8499999999996044 1.0194750413835538e-15 0.6134099634765567
0.8599999999996307 8.977974447875868e-16 0.5450186419293112
0.869999999999657 8.619417452396431e-16 0.4791566339906225
0.8799999999996835 7.688144567054981e-16 0.4161414373083238
0.8899999999997098 6.117128761797763e-16 0.35629295039039377
0.8999999999997362 4.86863856752253e-16 0.29993315744050975
0.9099999999997626 4.900621037934816e-16 0.24738582904675727
0.9199999999997889 3.4838756976854557e-16 0.1989762403349621
0.9299999999998153 2.974739031500713e-16 0.15503090820710444
0.9399999999998417 2.1678426140521367e-16 0.11587734929280159
0.9499999999998682 1.5934220407112224e-16 0.08184386024807522
0.9599999999998945 9.65969749064795e-17 0.053259322040661056
0.9699999999999208 5.525854658065978e-17 0.03045302986502506
0.9799999999999472 2.8874039985617464e-17 0.01375455033320766
0.9899999999999736 6.901221560329447e-18 0.003493607589707451

CELLS 100 300
2 0 2
2 2 3
2 3 4
2 4 5
2 5 6
2 6 7
2 7 8
2 8 9
2 9 10
2 10 11
2 11 12
2 12 13
2 13 14
2 14 15
2 15 16
2 16 17
2 17 18
2 18 19
2 19 20
2 20 21
2 21 22
2 22 23
2 23 24
2 24 25
2 25 26
2 26 27
2 27 28
2 28 29
2 29 30
2 30 31
2 31 32
2 32 33
2 33 34
2 34 35
2 35 36
2 36 37
2 37 38
2 38 39
2 39 40
2 40 41
2 41 42
2 42 43
2 43 44
2 44 45
2 45 46
2 46 47
2 47 48
2 48 49
2 49 50
2 50 51
2 51 52
2 52 53
2 53 54
2 54 55
2 55 56
2 56 57
2 57 58
2 58 59
2 59 60
2 60 61
2 61 62
2 62 63
2 63 64
2 64 65
2 65 66
2 66 67
2 67 68
2 68 69
2 69 70
2 70 71
2 71 72
2 72 73
2 73 74
2 74 75
2 75 76
2 76 77
2 77 78
2 78 79
2 79 80
2 80 81
2 81 82
2 82 83
2 83 84
2 84 85
2 85 86
2 86 87
2 87 88
2 88 89
2 89 90
2 90 91
2 91 92
2 92 93
2 93 94
2 94 95
2 95 96
2 96 97
2 97 98
2 98 99
2 99 100
2 100 1

CELL_TYPES 100
3
3
3
3
3
3
3
3
3
3
3
3
3
3
3
3
3
3
3
3
3
3
3
3
3
3
3
3
3
3
3
3
3
3
3
3
3
3
3
3
3
3
3
3
3
3
3
3
3
3
3
3
3
3
3
3
3
3
3
3
3
3
3
3
3
3
3
3
3
3
3
3
3
3
3
3
3
3
3
3
3
3
3
3
3
3
3
3
3
3
3
3
3
3
3
3
3
3
3
3

POINT_DATA 101
SCALARS DISPL float 1
LOOKUP_TABLE default
0.0
0.0
0.0003515844581174384
0.0013842098752206826
0.0030646864964856725
0.005359832036345838
0.00823648006275103
0.011661491458167847
0.015601768791394096
0.020024273434315117
0.024896045257946586
0.030184224742400498
0.03585607733580124
0.04187901989769255
0.04822064906309868
0.05484877136417258
0.06173143494724591
0.06883696272415292
0.07613398679793251
0.08359148400436954
0.09117881241238036
0.09886574862798582
0.10662252574852522
0.11441987181585148
0.12222904861953336
0.13002189070358114
0.13777084443287071
0.14544900697830837
0.153030165082848
0.16048883347373544
0.16780029278978592
0.17494062689616344
0.1818867594629535
0.1886164896878459
0.19510852704744525
0.2013425249661082
0.20729911329576414
0.21295992950489973
0.2183076484797697
0.22332601084594425
0.2279998497234965
0.23231511583445766
0.2362589008866476
0.23981945916356837
0.2429862272557708
0.2457498418749094
0.24810215569762997
0.25003625119242945
0.2515464523887195
0.2526283345534738
0.253278731747059
0.25349574223610444
0.2532787317475673
0.2526283345544812
0.25154645239021206
0.25003625119438994
0.24810215570003746
0.24574984187774024
0.2429862272589979
0.2398194591671616
0.2362589008905746
0.23231511583868536
0.22799984972799053
0.22332601085067094
0.21830764848469497
0.21295992950999035
0.20729911330098624
0.20134252497142827
0.1951085270528307
0.18861648969326372
0.18188675946837152
0.1749406269015512
0.16780029279511435
0.16048883347897783
0.15303016508797962
0.14544900698330684
0.13777084443771614
0.13002189070825543
0.12222904862402349
0.11441987182014857
0.10662252575262261
0.09886574863187837
0.09117881241606524
0.08359148400784462
0.07613398680119611
0.06883696272720487
0.061731434950086574
0.05484877136680163
0.04822064906551686
0.041879019899904356
0.03585607733781064
0.030184224744208153
0.02489604525955304
0.020024273435721492
0.015601768792602059
0.011661491459178793
0.008236480063567017
0.00535983203697087
0.0030646864969249635
0.0013842098754800398
0.0003515844582028811

