# vtk DataFile Version 2.0
mesh vtk view
ASCII
DATASET UNSTRUCTURED_GRID
POINTS 101 double
0.0 0.0 0.0
1.0 0.0 0.0
0.009999999999981052 1.1481872810195269e-14 -0.0006987215177716852
0.019999999999962263 3.227592041456926e-14 -0.0027509100661260964
0.029999999999942913 4.883641263660284e-14 -0.006090605972131983
0.039999999999921654 6.148313288670914e-14 -0.010651864406890046
0.049999999999899396 7.054316823099159e-14 -0.016368772047993377
0.059999999999878054 7.633839441994082e-14 -0.023175469856551195
0.06999999999986015 7.920463127642316e-14 -0.031006181639020223
0.07999999999984478 7.946346833002754e-14 -0.03979524806419743
0.08999999999982945 7.748062337461867e-14 -0.04947716580615883
0.09999999999981414 7.359267942256998e-14 -0.059986631484509466
0.10999999999979881 6.817184014363997e-14 -0.07125859007408533
0.11999999999978252 6.15640297159208e-14 -0.08322828745726907
0.12999999999976034 5.41642040695841e-14 -0.09583132679331867
0.13999999999973212 4.6472716770941185e-14 -0.10900372838063731
0.14999999999970282 3.8823678874368675e-14 -0.12268199268966586
0.15999999999967374 3.147868107222007e-14 -0.13680316624618002
0.16999999999964452 2.4785946404997196e-14 -0.15130491004722355
0.17999999999961533 1.8903002986535043e-14 -0.1661255701946049
0.18999999999958614 1.3721575883040233e-14 -0.1812042504339536
0.19999999999955692 9.250513790367905e-15 -0.19648088629078636
0.20999999999952773 5.435940606722667e-15 -0.2118963204988298
0.21999999999949854 2.5221416875217427e-15 -0.22739237941999363
0.22999999999946932 7.671010639222806e-16 -0.24291195015993075
0.23999999999944022 1.6819947956906683e-16 -0.25839905808806946
0.24999999999941092 1.0763803722605461e-16 -0.2737989444762875
0.2599999999993817 1.6776553162163501e-16 -0.2890581439760956
0.2699999999993525 9.268567339934847e-17 -0.3041245616602973
0.2799999999993234 9.439220940456053e-17 -0.31894754936157893
0.2899999999992942 6.728671633645409e-17 -0.33347798104730003
0.299999999999265 7.875217412181999e-17 -0.3476683269770355
0.3099999999992358 4.8691132472110545e-17 -0.361472726397017
0.3199999999992066 2.3882257042679217e-17 -0.37484705853362166
0.3299999999991775 -1.1719578616771703e-17 -0.38774901165640324
0.3399999999991483 -6.190863133211759e-17 -0.4001381499898694
0.34999999999911907 -8.498783645696536e-17 -0.41197597826226734
0.3599999999990898 -9.520297401020655e-17 -0.42322600368902435
0.3699999999990606 -1.1250658330640798e-16 -0.43385379519819706
0.3799999999990315 -1.4712136800051483e-16 -0.4438270397153098
0.3899999999990023 -2.1881360128564874e-16 -0.45311559533528767
0.3999999999989732 -1.6720947407305008e-16 -0.461691541219768
0.4099999999989439 -2.4633746073040334e-16 -0.4695292240689655
0.4199999999989147 -1.6266777118519036e-16 -0.476605301028356
0.4299999999988856 -2.914238240016302e-16 -0.4828987789018163
0.4399999999988564 -3.309317230423136e-16 -0.48839104955439316
0.4499999999988272 -3.250710521776624e-16 -0.4930659213996601
0.4599999999987979 -2.7903649298598376e-16 -0.49690964687853284
0.4699999999987687 -4.062304322711885e-16 -0.4999109458485229
0.4799999999987396 -3.6051861920554616e-16 -0.5020610248146266
0.4899999999987104 -3.426238119212634e-16 -0.5033535919454083
0.4999999999986921 -3.4315136791046737e-16 -0.5037848678302699
0.5099999999987076 -4.1953768844521016e-16 -0.5033535919464185
0.5199999999987339 -4.691201801161724e-16 -0.5020610248166286
0.5299999999987604 -3.392419303022125e-16 -0.4999109458514892
0.5399999999987867 -3.9771852883967233e-16 -0.496909646882429
0.549999999998813 -3.2860293857189983e-16 -0.4930659214044446
0.5599999999988394 -4.719766006362356e-16 -0.48839104956001905
0.5699999999988659 -4.6370046002911e-16 -0.48289877890822974
0.5799999999988923 -4.061359292372304e-16 -0.4766053010354971
0.5899999999989186 -4.491517013703711e-16 -0.46952922407676984
0.5999999999989449 -3.974964484086558e-16 -0.4616915412281699
0.6099999999989714 -3.9263793206568477e-16 -0.4531155953442189
0.6199999999989977 -4.1973776452882926e-16 -0.4438270397247034
0.6299999999990241 -3.9804231677832394e-16 -0.4338537952079853
0.6399999999990504 -3.902475926981361e-16 -0.4232260036991412
0.6499999999990768 -4.4126235358973755e-16 -0.4119759782726455
0.6599999999991032 -4.3573412170703365e-16 -0.4001381500004423
0.6699999999991295 -3.880408101985621e-16 -0.387749011667106
0.679999999999156 -4.3000032436153343e-16 -0.3748470585443888
0.6899999999991824 -4.315497362523643e-16 -0.3614727264077845
0.6999999999992087 -3.9858173999843386e-16 -0.34766832698774286
0.7099999999992351 -4.1555782968414457e-16 -0.3334779810578895
0.7199999999992615 -4.2813711255680367e-16 -0.3189475493719974
0.7299999999992879 -4.053157728504845e-16 -0.3041245616704956
0.7399999999993142 -3.9990796213946133e-16 -0.2890581439860293
0.7499999999993405 -4.014945811638915e-16 -0.2737989444859171
0.759999999999367 -3.5786069175941254e-16 -0.25839905809735886
0.7699999999993933 -2.6693714906087566e-16 -0.2429119501688542
0.7799999999994197 -3.0388297817694376e-16 -0.22739237942853344
0.789999999999446 -3.1862797530190775e-16 -0.21189632050697274
0.7999999999994724 -2.877002339252678e-16 -0.19648088629852223
0.8099999999994988 -2.650161740604516e-16 -0.18120425044127672
0.8199999999995252 -2.839530522689956e-16 -0.16612557020151109
0.8299999999995517 -2.373155183264021e-16 -0.15130491005370944
0.839999999999578 -2.2767002618852437e-16 -0.1368031662522453
0.8499999999996044 -2.0389500827671063e-16 -0.12268199269531126
0.8599999999996307 -1.7955948895751725e-16 -0.10900372838586216
0.869999999999657 -1.7238834904792849e-16 -0.09583132679812444
0.8799999999996835 -1.537628913410995e-16 -0.0832282874616647
0.8899999999997098 -1.2234257523595519e-16 -0.0712585900780787
0.8999999999997362 -9.737277135045055e-17 -0.059986631488101905
0.9099999999997626 -9.801242075869624e-17 -0.049477165809351416
0.9199999999997889 -6.967751395370906e-17 -0.039795248066992396
0.9299999999998153 -5.949478063001422e-17 -0.03100618164142087
0.9399999999998417 -4.3356852281042704e-17 -0.023175469858560303
0.9499999999998682 -3.1868440814224427e-17 -0.01636877204961503
0.9599999999998945 -1.9319394981295886e-17 -0.010651864408132204
0.9699999999999208 -1.1051709316131949e-17 -0.006090605973005008
0.9799999999999472 -5.774807997123488e-18 -0.00275091006664153
0.9899999999999736 -1.3802443120658885e-18 -0.0006987215179414897

CELLS 100 300
2 0 2
2 2 3
2 3 4
2 4 5
2 5 6
2 6 7
2 7 8
2 8 9
2 9 10
2 10 11
2 11 12
2 12 13
2 13 14
2 14 15
2 15 16
2 16 17
2 17 18
2 18 19
2 19 20
2 20 21
2 21 22
2 22 23
2 23 24
2 24 25
2 25 26
2 26 27
2 27 28
2 28 29
2 29 30
2 30 31
2 31 32
2 32 33
2 33 34
2 34 35
2 35 36
2 36 37
2 37 38
2 38 39
2 39 40
2 40 41
2 41 42
2 42 43
2 43 44
2 44 45
2 45 46
2 46 47
2 47 48
2 48 49
2 49 50
2 50 51
2 51 52
2 52 53
2 53 54
2 54 55
2 55 56
2 56 57
2 57 58
2 58 59
2 59 60
2 60 61
2 61 62
2 62 63
2 63 64
2 64 65
2 65 66
2 66 67
2 67 68
2 68 69
2 69 70
2 70 71
2 71 72
2 72 73
2 73 74
2 74 75
2 75 76
2 76 77
2 77 78
2 78 79
2 79 80
2 80 81
2 81 82
2 82 83
2 83 84
2 84 85
2 85 86
2 86 87
2 87 88
2 88 89
2 89 90
2 90 91
2 91 92
2 92 93
2 93 94
2 94 95
2 95 96
2 96 97
2 97 98
2 98 99
2 99 100
2 100 1

CELL_TYPES 100
3
3
3
3
3
3
3
3
3
3
3
3
3
3
3
3
3
3
3
3
3
3
3
3
3
3
3
3
3
3
3
3
3
3
3
3
3
3
3
3
3
3
3
3
3
3
3
3
3
3
3
3
3
3
3
3
3
3
3
3
3
3
3
3
3
3
3
3
3
3
3
3
3
3
3
3
3
3
3
3
3
3
3
3
3
3
3
3
3
3
3
3
3
3
3
3
3
3
3
3

POINT_DATA 101
SCALARS DISPL float 1
LOOKUP_TABLE default
0.0
0.0
0.0003515844581174384
0.0013842098752206826
0.0030646864964856725
0.005359832036345838
0.00823648006275103
0.011661491458167847
0.015601768791394096
0.020024273434315117
0.024896045257946586
0.030184224742400498
0.03585607733580124
0.04187901989769255
0.04822064906309868
0.05484877136417258
0.06173143494724591
0.06883696272415292
0.07613398679793251
0.08359148400436954
0.09117881241238036
0.09886574862798582
0.10662252574852522
0.11441987181585148
0.12222904861953336
0.13002189070358114
0.13777084443287071
0.14544900697830837
0.153030165082848
0.16048883347373544
0.16780029278978592
0.17494062689616344
0.1818867594629535
0.1886164896878459
0.19510852704744525
0.2013425249661082
0.20729911329576414
0.21295992950489973
0.2183076484797697
0.22332601084594425
0.2279998497234965
0.23231511583445766
0.2362589008866476
0.23981945916356837
0.2429862272557708
0.2457498418749094
0.24810215569762997
0.25003625119242945
0.2515464523887195
0.2526283345534738
0.253278731747059
0.25349574223610444
0.2532787317475673
0.2526283345544812
0.25154645239021206
0.25003625119438994
0.24810215570003746
0.24574984187774024
0.2429862272589979
0.2398194591671616
0.2362589008905746
0.23231511583868536
0.22799984972799053
0.22332601085067094
0.21830764848469497
0.21295992950999035
0.20729911330098624
0.20134252497142827
0.1951085270528307
0.18861648969326372
0.18188675946837152
0.1749406269015512
0.16780029279511435
0.16048883347897783
0.15303016508797962
0.14544900698330684
0.13777084443771614
0.13002189070825543
0.12222904862402349
0.11441987182014857
0.10662252575262261
0.09886574863187837
0.09117881241606524
0.08359148400784462
0.07613398680119611
0.06883696272720487
0.061731434950086574
0.05484877136680163
0.04822064906551686
0.041879019899904356
0.03585607733781064
0.030184224744208153
0.02489604525955304
0.020024273435721492
0.015601768792602059
0.011661491459178793
0.008236480063567017
0.00535983203697087
0.0030646864969249635
0.0013842098754800398
0.0003515844582028811

