# vtk DataFile Version 2.0
mesh vtk view
ASCII
DATASET UNSTRUCTURED_GRID
POINTS 101 double
0.0 0.0 0.0
1.0 0.0 0.0
0.009999999999980046 0.0053568649711094665 1.289402234240216e-13
0.01999999999996005 0.021090310511349717 3.667272651531928e-13
0.02999999999993942 0.04669464579319907 5.658483092479613e-13
0.03999999999991688 0.08166429379511951 7.305490740529389e-13
0.04999999999989338 0.1254939190453481 8.65997437685808e-13
0.05999999999987059 0.17767860224574525 9.787695356805175e-13
0.069999999999851 0.23771405924583602 1.0732841275292326e-12
0.079999999999834 0.30509690183975346 1.1522334528347367e-12
0.0899999999998172 0.37932493786210403 1.2215057243822797e-12
0.09999999999980053 0.45989750806321433 1.2831821155023686e-12
0.1099999999997837 0.5463158572501795 1.335871074808089e-12
0.11999999999976607 0.6380835371879606 1.3881266193494765e-12
0.1299999999997424 0.7347068387642272 1.4249559355742604e-12
0.13999999999971294 0.835695250933431 1.421825853264749e-12
0.14999999999968242 0.9405619439689682 1.377268989558004e-12
0.15999999999965225 1.0488242745684706 1.2886149174179497e-12
0.16999999999962206 1.1600043103759738 1.164853326440164e-12
0.17999999999959204 1.2736293715053817 9.978702008812113e-13
0.18999999999956196 1.3892325866732318 8.021462316207887e-13
0.19999999999953172 1.506353461575178 5.975440767215621e-13
0.20999999999950167 1.624538457169821 3.8658966708896e-13
0.21999999999947176 1.743341575565143 2.2474764429437365e-13
0.22999999999944204 1.8623249512377802 1.55328425101147e-13
0.23999999999941246 1.9810594453533454 1.3920142395676474e-13
0.24999999999938266 2.0991252409962198 1.2447268109818982e-13
0.259999999999353 2.216112437161281 1.0999943761541604e-13
0.26999999999932334 2.3316216394066926 9.382997335735529e-14
0.2799999999992938 2.4452645451163826 7.74058111117718e-14
0.289999999999264 2.556664521373438 6.036243661670035e-14
0.29999999999923416 2.6654571735012667 4.3172673827719536e-14
0.3099999999992043 2.771290902387645 2.5470264316338247e-14
0.3199999999991749 2.8738274487681283 6.397560395257331e-15
0.32999999999914575 2.972742422709285 -1.1078249916463153e-14
0.3399999999991165 3.067725816599004 -2.8670084019080756e-14
0.3499999999990872 3.158482500020507 -4.470849694330126e-14
0.3599999999990582 3.244732694958743 -6.047803519865457e-14
0.36999999999902905 3.3262124298621325 -7.474062721264872e-14
0.37999999999900025 3.4026739711597123 -8.87102764766122e-14
0.3899999999989713 3.4738862309125746 -1.0026149482155956e-13
0.3999999999989425 3.5396351493599454 -1.1126958168205585e-13
0.4099999999989135 3.5997240512034727 -1.2030375881156215e-13
0.41999999999888454 3.653973974558479 -1.2923490587722107e-13
0.4299999999988555 3.702223971588023 -1.3538731951079453e-13
0.4399999999988265 3.74433137992413 -1.4051922842733451e-13
0.4499999999987975 3.780172064070865 -1.460480596986737e-13
0.45999999999876845 3.8096406260752422 -1.482705564240477e-13
0.46999999999873954 3.832650584844846 -1.51975046617731e-13
0.4799999999987107 3.8491345235846386 -1.5195720622081588e-13
0.48999999999868177 3.859044204920279 -1.5224636500332213e-13
0.4999999999986638 3.8623506533705094 -1.5125206617022874e-13
0.5099999999986798 3.8590442049272475 -1.495615278813108e-13
0.5199999999987066 3.8491345235984453 -1.4604328094758012e-13
0.5299999999987336 3.832650584865304 -1.4151904194895736e-13
0.5399999999987604 3.8096406261021256 -1.3536356013158413e-13
0.5499999999987873 3.7801720641039 -1.283111579652695e-13
0.5599999999988146 3.7443313799630076 -1.2175296910285267e-13
0.5699999999988417 3.702223971632384 -1.1232432114223703e-13
0.5799999999988688 3.6539739746079083 -1.0546789142738617e-13
0.5899999999988959 3.5997240512575144 -9.703751883142706e-14
0.5999999999989227 3.5396351494181273 -8.961709976320629e-14
0.6099999999989497 3.4738862309744 -8.321508159871875e-14
0.6199999999989765 3.402673971224692 -7.802847832363852e-14
0.6299999999990035 3.3262124299297717 -7.134540860945816e-14
0.6399999999990307 3.2447326950285578 -6.514355021587673e-14
0.6499999999990579 3.1584825000920307 -5.629212761133715e-14
0.6599999999990855 3.067725816671761 -5.0000184514988165e-14
0.6699999999991129 2.972742422782821 -4.202987838835302e-14
0.6799999999991406 2.8738274488419724 -3.491697966048887e-14
0.6899999999991684 2.771290902461332 -2.7618984836659044e-14
0.6999999999991962 2.6654571735743433 -2.2568956422005746e-14
0.709999999999224 2.5566645214454726 -1.5708117653914687e-14
0.7199999999992519 2.4452645451869794 -9.043803253130432e-15
0.7299999999992798 2.331621639475482 -2.629769840421313e-15
0.7399999999993073 2.2161124372279244 3.864509615378693e-15
0.7499999999993346 2.099125241060406 1.013587203775154e-14
0.7599999999993621 1.9810594454147996 1.5964828140836032e-14
0.7699999999993895 1.8623249512962634 2.1946638008133724e-14
0.779999999999417 1.7433415756204735 2.7920422545221567e-14
0.7899999999994446 1.6245384572218418 3.095455687963027e-14
0.7999999999994719 1.5063534616237146 3.5472361635952326e-14
0.8099999999994992 1.3892325867181543 3.9115762976932534e-14
0.8199999999995263 1.2736293715466003 4.135887656606512e-14
0.8299999999995531 1.160004310413424 4.327885129573292e-14
0.8399999999995796 1.0488242746021528 4.374700972493366e-14
0.8499999999996063 0.9405619439989281 4.3591732099666994e-14
0.8599999999996328 0.8356952509597367 4.327046728728829e-14
0.8699999999996595 0.7347068387869845 4.136871534670208e-14
0.879999999999686 0.6380835372073507 3.932348659536943e-14
0.8899999999997126 0.5463158572664045 3.6350652299843336e-14
0.8999999999997391 0.4598975080764539 3.285321725413169e-14
0.9099999999997657 0.3793249378725655 2.877766248239292e-14
0.9199999999997921 0.3050969018476755 2.4893042969506193e-14
0.9299999999998186 0.23771405925149106 2.0400272183026886e-14
0.939999999999845 0.1776786022494282 1.5981940349854286e-14
0.9499999999998712 0.12549391904739085 1.1806770986271515e-14
0.9599999999998972 0.08166429379591143 8.091416970901669e-15
0.9699999999999231 0.04669464579317531 4.849702116862438e-15
0.9799999999999491 0.021090310510982323 2.284624336904114e-15
0.9899999999999746 0.005356864970901507 6.011586065016813e-16

CELLS 100 300
2 0 2
2 2 3
2 3 4
2 4 5
2 5 6
2 6 7
2 7 8
2 8 9
2 9 10
2 10 11
2 11 12
2 12 13
2 13 14
2 14 15
2 15 16
2 16 17
2 17 18
2 18 19
2 19 20
2 20 21
2 21 22
2 22 23
2 23 24
2 24 25
2 25 26
2 26 27
2 27 28
2 28 29
2 29 30
2 30 31
2 31 32
2 32 33
2 33 34
2 34 35
2 35 36
2 36 37
2 37 38
2 38 39
2 39 40
2 40 41
2 41 42
2 42 43
2 43 44
2 44 45
2 45 46
2 46 47
2 47 48
2 48 49
2 49 50
2 50 51
2 51 52
2 52 53
2 53 54
2 54 55
2 55 56
2 56 57
2 57 58
2 58 59
2 59 60
2 60 61
2 61 62
2 62 63
2 63 64
2 64 65
2 65 66
2 66 67
2 67 68
2 68 69
2 69 70
2 70 71
2 71 72
2 72 73
2 73 74
2 74 75
2 75 76
2 76 77
2 77 78
2 78 79
2 79 80
2 80 81
2 81 82
2 82 83
2 83 84
2 84 85
2 85 86
2 86 87
2 87 88
2 88 89
2 89 90
2 90 91
2 91 92
2 92 93
2 93 94
2 94 95
2 95 96
2 96 97
2 97 98
2 98 99
2 99 100
2 100 1

CELL_TYPES 100
3
3
3
3
3
3
3
3
3
3
3
3
3
3
3
3
3
3
3
3
3
3
3
3
3
3
3
3
3
3
3
3
3
3
3
3
3
3
3
3
3
3
3
3
3
3
3
3
3
3
3
3
3
3
3
3
3
3
3
3
3
3
3
3
3
3
3
3
3
3
3
3
3
3
3
3
3
3
3
3
3
3
3
3
3
3
3
3
3
3
3
3
3
3
3
3
3
3
3
3

POINT_DATA 101
SCALARS DISPL float 1
LOOKUP_TABLE default
0.0
0.0
0.0003515844582169249
0.0013842098755055742
0.003064686496929367
0.005359832036923327
0.008236480063438904
0.01166149145894428
0.015601768792238868
0.020024273435209582
0.02489604525887372
0.03018422474334474
0.035856077336748345
0.04187901989863015
0.04822064906401611
0.054848771365061035
0.061731434948097706
0.06883696272496163
0.07613398679869399
0.08359148400508222
0.09117881241304567
0.09886574862860695
0.1066225257491074
0.11441987181640047
0.12222904862005267
0.13002189070407402
0.13777084443333945
0.14544900697875293
0.15303016508326855
0.1604888334741321
0.16780029279015873
0.17494062689651257
0.1818867594632791
0.18861648968814798
0.19510852704772327
0.20134252496636132
0.2072991132959913
0.21295992950510012
0.21830764847994183
0.22332601084608764
0.22799984972361073
0.23231511583454278
0.23625890088670382
0.23981945916359637
0.24298622725577154
0.2457498418748839
0.24810215569757935
0.25003625119235434
0.25154645238862033
0.2526283345533505
0.25327873174691123
0.2534957422359316
0.2532787317473686
0.25262833455425665
0.25154645238996304
0.25003625119411876
0.2481021556997475
0.24574984187743554
0.24298622725868307
0.23981945916684053
0.2362589008902507
0.2323151158383614
0.22799984972766849
0.22332601085035242
0.21830764848438114
0.21295992950968226
0.20729911330068557
0.20134252497113658
0.1951085270525496
0.18861648969299455
0.18188675946811536
0.17494062690130877
0.16780029279488656
0.16048883347876555
0.15303016508778336
0.1454490069831269
0.1377708444375522
0.1300218907081074
0.12222904862389107
0.11441987182003197
0.10662252575252165
0.09886574863179252
0.09117881241599404
0.0835914840077875
0.07613398680115192
0.06883696272717228
0.06173143495006405
0.05484877136678755
0.048220649065509734
0.04187901989990277
0.035856077337813236
0.030184224744213683
0.024896045259560334
0.020024273435729528
0.015601768792610023
0.011661491459186
0.008236480063572976
0.005359832036975303
0.0030646864969278076
0.0013842098754814614
0.000351584458203276

