# vtk DataFile Version 2.0
mesh vtk view
ASCII
DATASET UNSTRUCTURED_GRID
POINTS 101 double
0.0 0.0 0.0
1.0 0.0 0.0
0.009999999999981048 -4.975478217751287e-14 0.003027793243677305
0.019999999999962253 -1.3986232179646691e-13 0.011920610286546427
0.029999999999942895 -2.1162445475861247e-13 0.026392625879238615
0.03999999999992163 -2.664269091757398e-13 0.046158079096523565
0.04999999999989937 -3.0568706233429716e-13 0.07093134554130469
0.05999999999987802 -3.3079970915307714e-13 0.10042703604505526
0.06999999999986009 -3.432200688645006e-13 0.1343601204357544
0.07999999999984472 -3.4434169609678626e-13 0.17244607494485567
0.0899999999998294 -3.357493679566812e-13 0.21440105182668842
0.09999999999981408 -3.1890161083113677e-13 0.2599420697662079
0.10999999999979874 -2.954113072891067e-13 0.30878722365437
0.11999999999978245 -2.667774621023237e-13 0.3606559123148329
0.12999999999976025 -2.3471155096819795e-13 0.4152690827710479
0.139999999999732 -2.0138177267407862e-13 0.4723494896494287
0.1499999999997027 -1.6823594178893105e-13 0.5316219683218858
0.15999999999967363 -1.364076179796204e-13 0.5928137204001139
0.1699999999996444 -1.0740576775498793e-13 0.6556546102046358
0.17999999999961522 -8.191301294165192e-14 0.7198774708432883
0.18999999999958603 -5.946016215984106e-14 0.7852184185471328
0.1999999999995568 -4.008555975826095e-14 0.8514171739267415
0.20999999999952762 -2.3555742629131575e-14 0.9182173888282631
0.2199999999994984 -1.0929280645927558e-14 0.9853669774866397
0.22999999999946918 -3.324104610329885e-15 1.052618450693034
0.23999999999944008 -7.288644114659568e-16 1.1197292517149684
0.24999999999941078 -4.66431494646237e-16 1.1864620927305802
0.2599999999993816 -7.269839703604189e-16 1.2525852905630819
0.26999999999935237 -4.016379180638437e-16 1.3178731005279558
0.2799999999993233 -4.090329074197626e-16 1.3821060472335096
0.2899999999992941 -2.9157577079130127e-16 1.445071251204968
0.2999999999992649 -3.4125942119455353e-16 1.5065627502338215
0.30999999999923566 -2.1099490737914585e-16 1.5663818143870747
0.3199999999992065 -1.0348978051827668e-16 1.624337253645695
0.3299999999991774 5.078484067267742e-17 1.6802457171777485
0.3399999999991482 2.6827073577250973e-16 1.7339319832894355
0.3499999999991189 3.6828062464685017e-16 1.7852292391364932
0.3599999999990897 4.1254622071089533e-16 1.833979349319107
0.36999999999906047 4.875285276611016e-16 1.8800331125255219
0.3799999999990314 6.375259280022314e-16 1.9232505054330105
0.3899999999990022 9.48192272237812e-16 1.9635009131195813
0.399999999998973 7.245743876498842e-16 2.000663345285663
0.40999999999894376 1.0674623298317486e-15 2.0346266376321855
0.4199999999989146 7.048936751358254e-16 2.065289637789544
0.4299999999988855 1.2628365706737318e-15 2.0925613752412056
0.4399999999988563 1.4340374665166934e-15 2.116361214735705
0.4499999999988271 1.4086412261032045e-15 2.136618992731862
0.4599999999987978 1.2091581362725974e-15 2.1532751364736438
0.46999999999876857 1.7603318731751513e-15 2.166280765343601
0.4799999999987395 1.5622473498907011e-15 2.1755977741967167
0.4899999999987103 1.4847031849921424e-15 2.1811988984301043
0.499999999998692 1.4869892609453597e-15 2.183067760597838
0.5099999999987075 1.8179966499292453e-15 2.1811988984344817
0.5199999999987338 2.0328541138367484e-15 2.1755977742053925
0.5299999999987602 1.470048364642922e-15 2.1662807653564546
0.5399999999987866 1.723446958305248e-15 2.153275136490527
0.5499999999988129 1.4239460671449003e-15 2.136618992752595
0.5599999999988393 2.0452319360903556e-15 2.1163612147600843
0.5699999999988657 2.0093686601261448e-15 2.092561375268997
0.5799999999988922 1.7599223600279996e-15 2.065289637820489
0.5899999999989185 1.9463240392716097e-15 2.0346266376660043
0.5999999999989448 1.7224846097708431e-15 2.0006633453220712
0.6099999999989713 1.701431038951302e-15 1.9635009131582832
0.6199999999989976 1.8188636462915947e-15 1.923250505473716
0.629999999999024 1.7248500393727384e-15 1.8800331125679377
0.6399999999990503 1.6910729016919242e-15 1.8339793493629466
0.6499999999990766 1.912136865555531e-15 1.785229239181465
0.6599999999991031 1.888181194063814e-15 1.7339319833352511
0.6699999999991294 1.6815101775271036e-15 1.6802457172241272
0.6799999999991558 1.8633347388999798e-15 1.6243372536923526
0.6899999999991824 1.87004885709358e-15 1.566381814433734
0.6999999999992087 1.7271875399932146e-15 1.5065627502802201
0.7099999999992351 1.8007505952979613e-15 1.4450712512508557
0.7199999999992615 1.855260821079484e-15 1.3821060472786564
0.7299999999992879 1.7563683490187676e-15 1.3178731005721485
0.7399999999993142 1.7329345026043337e-15 1.2525852906061279
0.7499999999993405 1.7398098517101978e-15 1.1864620927723082
0.759999999999367 1.5507296642907887e-15 1.1197292517552226
0.7699999999993933 1.156727645930462e-15 1.0526184507317022
0.7799999999994197 1.3168262387667572e-15 0.9853669775236457
0.789999999999446 1.380721226308268e-15 0.9182173888635492
0.7999999999994724 1.2467010136761616e-15 0.8514171739602636
0.8099999999994988 1.1484034209286242e-15 0.7852184185788664
0.8199999999995252 1.2304632264989817e-15 0.7198774708732152
0.8299999999995517 1.0283672460810766e-15 0.6556546102327414
0.839999999999578 9.865701134836062e-16 0.5928137204263968
0.8499999999996044 8.835450358657467e-16 0.5316219683463492
0.8599999999996307 7.780911188159086e-16 0.4723494896720697
0.869999999999657 7.470161792076907e-16 0.41526908279187286
0.8799999999996835 6.663058624780984e-16 0.36065591233388067
0.8899999999997098 5.301511593558062e-16 0.30878722367167466
0.8999999999997362 4.219486758519527e-16 0.25994206978177514
0.9099999999997626 4.2472048995435073e-16 0.21440105184052297
0.9199999999997889 3.0193589379940614e-16 0.17244607495696718
0.9299999999998153 2.5781071606339516e-16 0.1343601204461572
0.9399999999998417 1.8787969321785185e-16 0.10042703605376138
0.9499999999998682 1.380965768616393e-16 0.07093134554833186
0.9599999999998945 8.371737825228224e-17 0.04615807910190625
0.9699999999999208 4.7890740369905146e-17 0.02639262588302172
0.9799999999999472 2.5024167987535135e-17 0.011920610288779974
0.9899999999999736 5.9810586856188546e-18 0.0030277932444131243

CELLS 100 300
2 0 2
2 2 3
2 3 4
2 4 5
2 5 6
2 6 7
2 7 8
2 8 9
2 9 10
2 10 11
2 11 12
2 12 13
2 13 14
2 14 15
2 15 16
2 16 17
2 17 18
2 18 19
2 19 20
2 20 21
2 21 22
2 22 23
2 23 24
2 24 25
2 25 26
2 26 27
2 27 28
2 28 29
2 29 30
2 30 31
2 31 32
2 32 33
2 33 34
2 34 35
2 35 36
2 36 37
2 37 38
2 38 39
2 39 40
2 40 41
2 41 42
2 42 43
2 43 44
2 44 45
2 45 46
2 46 47
2 47 48
2 48 49
2 49 50
2 50 51
2 51 52
2 52 53
2 53 54
2 54 55
2 55 56
2 56 57
2 57 58
2 58 59
2 59 60
2 60 61
2 61 62
2 62 63
2 63 64
2 64 65
2 65 66
2 66 67
2 67 68
2 68 69
2 69 70
2 70 71
2 71 72
2 72 73
2 73 74
2 74 75
2 75 76
2 76 77
2 77 78
2 78 79
2 79 80
2 80 81
2 81 82
2 82 83
2 83 84
2 84 85
2 85 86
2 86 87
2 87 88
2 88 89
2 89 90
2 90 91
2 91 92
2 92 93
2 93 94
2 94 95
2 95 96
2 96 97
2 97 98
2 98 99
2 99 100
2 100 1

CELL_TYPES 100
3
3
3
3
3
3
3
3
3
3
3
3
3
3
3
3
3
3
3
3
3
3
3
3
3
3
3
3
3
3
3
3
3
3
3
3
3
3
3
3
3
3
3
3
3
3
3
3
3
3
3
3
3
3
3
3
3
3
3
3
3
3
3
3
3
3
3
3
3
3
3
3
3
3
3
3
3
3
3
3
3
3
3
3
3
3
3
3
3
3
3
3
3
3
3
3
3
3
3
3

POINT_DATA 101
SCALARS DISPL float 1
LOOKUP_TABLE default
0.0
0.0
0.0003515844581174384
0.0013842098752206826
0.0030646864964856725
0.005359832036345838
0.00823648006275103
0.011661491458167847
0.015601768791394096
0.020024273434315117
0.024896045257946586
0.030184224742400498
0.03585607733580124
0.04187901989769255
0.04822064906309868
0.05484877136417258
0.06173143494724591
0.06883696272415292
0.07613398679793251
0.08359148400436954
0.09117881241238036
0.09886574862798582
0.10662252574852522
0.11441987181585148
0.12222904861953336
0.13002189070358114
0.13777084443287071
0.14544900697830837
0.153030165082848
0.16048883347373544
0.16780029278978592
0.17494062689616344
0.1818867594629535
0.1886164896878459
0.19510852704744525
0.2013425249661082
0.20729911329576414
0.21295992950489973
0.2183076484797697
0.22332601084594425
0.2279998497234965
0.23231511583445766
0.2362589008866476
0.23981945916356837
0.2429862272557708
0.2457498418749094
0.24810215569762997
0.25003625119242945
0.2515464523887195
0.2526283345534738
0.253278731747059
0.25349574223610444
0.2532787317475673
0.2526283345544812
0.25154645239021206
0.25003625119438994
0.24810215570003746
0.24574984187774024
0.2429862272589979
0.2398194591671616
0.2362589008905746
0.23231511583868536
0.22799984972799053
0.22332601085067094
0.21830764848469497
0.21295992950999035
0.20729911330098624
0.20134252497142827
0.1951085270528307
0.18861648969326372
0.18188675946837152
0.1749406269015512
0.16780029279511435
0.16048883347897783
0.15303016508797962
0.14544900698330684
0.13777084443771614
0.13002189070825543
0.12222904862402349
0.11441987182014857
0.10662252575262261
0.09886574863187837
0.09117881241606524
0.08359148400784462
0.07613398680119611
0.06883696272720487
0.061731434950086574
0.05484877136680163
0.04822064906551686
0.041879019899904356
0.03585607733781064
0.030184224744208153
0.02489604525955304
0.020024273435721492
0.015601768792602059
0.011661491459178793
0.008236480063567017
0.00535983203697087
0.0030646864969249635
0.0013842098754800398
0.0003515844582028811

