# vtk DataFile Version 2.0
mesh vtk view
ASCII
DATASET UNSTRUCTURED_GRID
POINTS 101 double
0.0 0.0 0.0
1.0 0.0 0.0
0.009999999999981057 7.271852779790341e-14 -0.004425236279220675
0.01999999999996227 2.0441416262560543e-13 -0.01742243041879862
0.029999999999942926 3.092972800318181e-13 -0.03857383782350258
0.039999999999921675 3.89393174949158e-13 -0.06746180791030365
0.04999999999989942 4.467733987962803e-13 -0.10366888963729144
0.05999999999987809 4.834764979929587e-13 -0.14677797575815765
0.06999999999986019 5.016293314173468e-13 -0.19637248371379484
0.07999999999984482 5.032686327568413e-13 -0.2520365710732505
0.0899999999998295 4.907106147059185e-13 -0.31335538343900604
0.0999999999998142 4.660869696762767e-13 -0.37991533273522676
0.10999999999979887 4.3175498757638663e-13 -0.4513044038025406
0.11999999999978259 3.899055215341653e-13 -0.527112487229371
0.1299999999997604 3.430399591073661e-13 -0.6069317363576852
0.1399999999997322 2.9432720621596096e-13 -0.6903569464107032
0.1499999999997029 2.458832995376684e-13 -0.7769859537012175
0.15999999999967382 1.9936498012406054e-13 -0.8664200528924739
0.1699999999996446 1.5697766056498233e-13 -0.9582644302990828
0.1799999999996154 1.19719018914722e-13 -1.052128611232498
0.18999999999958625 8.690331392592152e-14 -1.14762691941504
0.19999999999955703 5.858658733899675e-14 -1.2443789465083142
0.20999999999952784 3.442762384257691e-14 -1.3420100298259225
0.21999999999949865 1.5973564020971043e-14 -1.440151736326627
0.22999999999946943 4.858306738174446e-15 -1.5384423510128953
0.23999999999944036 1.0652633706040904e-15 -1.6365273678911072
0.24999999999941103 6.817075690983461e-16 -1.734059981683155
0.2599999999993819 1.0625150336036888e-15 -1.8307015785152727
0.26999999999935265 5.870092648625406e-16 -1.9261222238485503
0.27999999999932357 5.978173262288837e-16 -2.0200011459566674
0.2899999999992944 4.2614920346420943e-16 -2.112027213299568
0.2999999999992652 4.987637694381934e-16 -2.2018994041878925
0.30999999999923594 3.083771723233669e-16 -2.2893272671811085
0.31999999999920675 1.512542946036351e-16 -2.374031370712938
0.3299999999991777 -7.422399790622083e-17 -2.4557437404905547
0.3399999999991485 -3.920879984367449e-16 -2.5342082832691744
0.3499999999991192 -5.382562975607808e-16 -2.609181195661028
0.35999999999909 -6.029521687313084e-16 -2.6804313566971554
0.36999999999906075 -7.125416942739175e-16 -2.7477407029219156
0.37999999999903167 -9.31768664003261e-16 -2.81090458486363
0.3899999999990025 -1.3858194748091093e-15 -2.8697321037901564
0.3999999999989733 -1.0589933357959842e-15 -2.9240464277251985
0.40999999999894404 -1.5601372512925551e-15 -2.9736850857701165
0.41999999999891485 -1.030229217506206e-15 -3.018500239846256
0.4299999999988858 -1.845684218676992e-15 -3.058358933044838
0.4399999999988566 -2.0959009126013203e-15 -3.0931433138444913
0.4499999999988274 -2.0587833304585294e-15 -3.122750835531182
0.4599999999987981 -1.7672311222445648e-15 -3.1470944302307093
0.46999999999876885 -2.572792737717528e-15 -3.1661026570406463
0.47999999999873977 -2.2832845883017934e-15 -3.179719823825969
0.4899999999987106 -2.169950808834669e-15 -3.1879060823209207
0.49999999999869227 -2.173291996766294e-15 -3.1906374962583777
0.5099999999987077 -2.6570720268196655e-15 -3.1879060823273186
0.519999999998734 -2.9710944740690928e-15 -3.1797198238386493
0.5299999999987605 -2.1485322252473468e-15 -3.166102657059433
0.5399999999987868 -2.5188840159845928e-15 -3.147094430255385
0.5499999999988131 -2.0811519442887e-15 -3.122750835561484
0.5599999999988395 -2.9891851373628266e-15 -3.093143313880122
0.569999999998866 -2.9367695801843646e-15 -3.058358933085456
0.5799999999988924 -2.57219421850246e-15 -3.0185002398914826
0.5899999999989187 -2.8446274420123513e-15 -2.9736850858195436
0.599999999998945 -2.5174775065881546e-15 -2.924046427778411
0.6099999999989715 -2.4867069030826715e-15 -2.869732103846721
0.6199999999989978 -2.658339175349253e-15 -2.8109045849231227
0.6299999999990242 -2.520934672929386e-15 -2.7477407029839083
0.6399999999990506 -2.471568087088196e-15 -2.680431356761229
0.6499999999990769 -2.7946615727350057e-15 -2.609181195726756
0.6599999999991033 -2.759649437477881e-15 -2.5342082833361355
0.6699999999991296 -2.4575917979242275e-15 -2.455743740558339
0.6799999999991561 -2.7233353876230464e-15 -2.3740313707811302
0.6899999999991825 -2.7331483295983082e-15 -2.289327267249303
0.6999999999992088 -2.5243510199900823e-15 -2.201899404255706
0.7099999999992352 -2.63186625466625e-15 -2.1120272133666345
0.7199999999992615 -2.711535046193091e-15 -2.020001146022651
0.7299999999992879 -2.5669998947197364e-15 -1.9261222239131397
0.7399999999993142 -2.5327504268832562e-15 -1.8307015785781864
0.7499999999993405 -2.5427990140379806e-15 -1.7340599817441422
0.759999999999367 -2.266451047809614e-15 -1.6365273679499404
0.7699999999993933 -1.6906019440522131e-15 -1.5384423510694105
0.7799999999994197 -1.9245921951206444e-15 -1.4401517363807124
0.789999999999446 -2.0179771769120835e-15 -1.3420100298774946
0.7999999999994724 -1.822101481526697e-15 -1.244378946557308
0.8099999999994988 -1.6784357690495274e-15 -1.1476269194614197
0.8199999999995252 -1.798369331036973e-15 -1.0521286112762374
0.8299999999995517 -1.5029982827338806e-15 -0.9582644303401603
0.839999999999578 -1.441910165860655e-15 -0.8664200529308874
0.8499999999996044 -1.2913350524191679e-15 -0.7769859537369717
0.8599999999996307 -1.137210096730943e-15 -0.6903569464437939
0.869999999999657 -1.0917928773035476e-15 -0.6069317363881217
0.8799999999996835 -9.738316451602973e-16 -0.52711248725721
0.8899999999997098 -7.748363098277165e-16 -0.45130440382783205
0.8999999999997362 -6.166942185528538e-16 -0.3799153327579789
0.9099999999997626 -6.207453314717432e-16 -0.3133553834592258
0.9199999999997889 -4.4129092170682427e-16 -0.25203657109095196
0.9299999999998153 -3.7680027732342357e-16 -0.19637248372899893
0.9399999999998417 -2.7459339777993727e-16 -0.14677797577088197
0.9499999999998682 -2.0183345849008814e-16 -0.10366888964756191
0.9599999999998945 -1.22356168214874e-16 -0.06746180791817065
0.9699999999999208 -6.999415900216905e-17 -0.03857383782903174
0.9799999999999472 -3.657378398178211e-17 -0.017422430422063033
0.9899999999999736 -8.741547309750631e-18 -0.004425236280296104

CELLS 100 300
2 0 2
2 2 3
2 3 4
2 4 5
2 5 6
2 6 7
2 7 8
2 8 9
2 9 10
2 10 11
2 11 12
2 12 13
2 13 14
2 14 15
2 15 16
2 16 17
2 17 18
2 18 19
2 19 20
2 20 21
2 21 22
2 22 23
2 23 24
2 24 25
2 25 26
2 26 27
2 27 28
2 28 29
2 29 30
2 30 31
2 31 32
2 32 33
2 33 34
2 34 35
2 35 36
2 36 37
2 37 38
2 38 39
2 39 40
2 40 41
2 41 42
2 42 43
2 43 44
2 44 45
2 45 46
2 46 47
2 47 48
2 48 49
2 49 50
2 50 51
2 51 52
2 52 53
2 53 54
2 54 55
2 55 56
2 56 57
2 57 58
2 58 59
2 59 60
2 60 61
2 61 62
2 62 63
2 63 64
2 64 65
2 65 66
2 66 67
2 67 68
2 68 69
2 69 70
2 70 71
2 71 72
2 72 73
2 73 74
2 74 75
2 75 76
2 76 77
2 77 78
2 78 79
2 79 80
2 80 81
2 81 82
2 82 83
2 83 84
2 84 85
2 85 86
2 86 87
2 87 88
2 88 89
2 89 90
2 90 91
2 91 92
2 92 93
2 93 94
2 94 95
2 95 96
2 96 97
2 97 98
2 98 99
2 99 100
2 100 1

CELL_TYPES 100
3
3
3
3
3
3
3
3
3
3
3
3
3
3
3
3
3
3
3
3
3
3
3
3
3
3
3
3
3
3
3
3
3
3
3
3
3
3
3
3
3
3
3
3
3
3
3
3
3
3
3
3
3
3
3
3
3
3
3
3
3
3
3
3
3
3
3
3
3
3
3
3
3
3
3
3
3
3
3
3
3
3
3
3
3
3
3
3
3
3
3
3
3
3
3
3
3
3
3
3

POINT_DATA 101
SCALARS DISPL float 1
LOOKUP_TABLE default
0.0
0.0
0.0003515844581174384
0.0013842098752206826
0.0030646864964856725
0.005359832036345838
0.00823648006275103
0.011661491458167847
0.015601768791394096
0.020024273434315117
0.024896045257946586
0.030184224742400498
0.03585607733580124
0.04187901989769255
0.04822064906309868
0.05484877136417258
0.06173143494724591
0.06883696272415292
0.07613398679793251
0.08359148400436954
0.09117881241238036
0.09886574862798582
0.10662252574852522
0.11441987181585148
0.12222904861953336
0.13002189070358114
0.13777084443287071
0.14544900697830837
0.153030165082848
0.16048883347373544
0.16780029278978592
0.17494062689616344
0.1818867594629535
0.1886164896878459
0.19510852704744525
0.2013425249661082
0.20729911329576414
0.21295992950489973
0.2183076484797697
0.22332601084594425
0.2279998497234965
0.23231511583445766
0.2362589008866476
0.23981945916356837
0.2429862272557708
0.2457498418749094
0.24810215569762997
0.25003625119242945
0.2515464523887195
0.2526283345534738
0.253278731747059
0.25349574223610444
0.2532787317475673
0.2526283345544812
0.25154645239021206
0.25003625119438994
0.24810215570003746
0.24574984187774024
0.2429862272589979
0.2398194591671616
0.2362589008905746
0.23231511583868536
0.22799984972799053
0.22332601085067094
0.21830764848469497
0.21295992950999035
0.20729911330098624
0.20134252497142827
0.1951085270528307
0.18861648969326372
0.18188675946837152
0.1749406269015512
0.16780029279511435
0.16048883347897783
0.15303016508797962
0.14544900698330684
0.13777084443771614
0.13002189070825543
0.12222904862402349
0.11441987182014857
0.10662252575262261
0.09886574863187837
0.09117881241606524
0.08359148400784462
0.07613398680119611
0.06883696272720487
0.061731434950086574
0.05484877136680163
0.04822064906551686
0.041879019899904356
0.03585607733781064
0.030184224744208153
0.02489604525955304
0.020024273435721492
0.015601768792602059
0.011661491459178793
0.008236480063567017
0.00535983203697087
0.0030646864969249635
0.0013842098754800398
0.0003515844582028811

