# vtk DataFile Version 2.0
mesh vtk view
ASCII
DATASET UNSTRUCTURED_GRID
POINTS 101 double
0.0 0.0 0.0
1.0 0.0 0.0
0.009999999999980571 0.0025619788992262663 6.166706337670597e-14
0.0199999999999612 0.010086670244558558 1.7539130072544e-13
0.02999999999994124 0.022332221901095205 2.7062310442293795e-13
0.03999999999991937 0.03905683616288324 3.493930354166229e-13
0.049999999999896516 0.06001883084777517 4.141726875888646e-13
0.05999999999987448 0.0849767228131825 4.681071692385083e-13
0.06999999999985576 0.11368933268279112 5.133098001226763e-13
0.07999999999983962 0.14591590957553424 5.51068173094874e-13
0.08999999999982358 0.1814162746297019 5.841983899219597e-13
0.09999999999980763 0.21995098211718944 6.13695794370698e-13
0.10999999999979158 0.26128149694573793 6.388948618647381e-13
0.11999999999977465 0.30517038735076374 6.63886644036706e-13
0.12999999999975176 0.3513815315828912 6.815006648398636e-13
0.13999999999972293 0.3996803374029452 6.800036689527059e-13
0.14999999999969305 0.4498339732025499 6.586938645712193e-13
0.15999999999966344 0.501611609576225 6.162940909390193e-13
0.16999999999963378 0.5547846701798135 5.571037648192088e-13
0.17999999999960417 0.6091270907199651 4.772422699866662e-13
0.18999999999957456 0.664415584930676 3.836351542534206e-13
0.19999999999954485 0.7204299164055198 2.857819497363992e-13
0.20999999999951527 0.7769531751681752 1.848907103468939e-13
0.21999999999948572 0.8337720578789812 1.074880037929613e-13
0.22999999999945625 0.8906771505919817 7.428750765707029e-14
0.23999999999942692 0.9474632129950782 6.657459406627879e-14
0.2499999999993974 1.0039294630851483 5.953041269913425e-14
0.259999999999368 1.0598798612510472 5.2608426685633756e-14
0.26999999999933855 1.1151233927597224 4.487520464916992e-14
0.27999999999930925 1.1694743476643565 3.7020170531716936e-14
0.2899999999992798 1.2227525971786004 2.8868991425378425e-14
0.29999999999925026 1.274783865587562 2.0647800526300645e-14
0.30999999999922073 1.3253999967940908 1.2181430759987854e-14
0.31999999999919143 1.3744392146282352 3.059702797731767e-15
0.3299999999991623 1.4217463760783535 -5.298293438308464e-15
0.3399999999991331 1.4671732166343059 -1.3711779313473403e-14
0.3499999999991038 1.5105785869663293 -2.1382324625057123e-14
0.3599999999990747 1.5518286801976593 -2.892427770370436e-14
0.3699999999990455 1.590797249064498 -3.574551736257112e-14
0.37999999999901657 1.627365812293775 -4.242665396707539e-14
0.3899999999989875 1.6614238495668832 -4.7951149697267605e-14
0.39999999999895847 1.6928689844764955 -5.3215886891418006e-14
0.40999999999892933 1.7216071549233998 -5.753658030118189e-14
0.41999999999890025 1.7475527704410114 -6.180799846301876e-14
0.42999999999887123 1.7706288559768801 -6.47504571573365e-14
0.4399999999988421 1.7907671817028445 -6.720484837829041e-14
0.449999999998813 1.8079083784686742 -6.984907202980045e-14
0.4599999999987838 1.8220020385577242 -7.091200524628367e-14
0.46999999999875475 1.8330068014475347 -7.268371794761047e-14
0.4799999999987258 1.840890424323088 -7.267518558386846e-14
0.4899999999986967 1.8456298371357853 -7.28134789146323e-14
0.49999999999867856 1.8472111820467652 -7.233794469010939e-14
0.5099999999986943 1.8456298371391182 -7.152942637801818e-14
0.5199999999987208 1.840890424329691 -6.984678654014701e-14
0.5299999999987476 1.8330068014573189 -6.768302006254481e-14
0.5399999999987741 1.8220020385705815 -6.4739093975975e-14
0.5499999999988008 1.8079083784844736 -6.136620598338974e-14
0.5599999999988275 1.7907671817214381 -5.822968087527736e-14
0.5699999999988543 1.7706288559980963 -5.3720327502809006e-14
0.5799999999988811 1.7475527704646514 -5.0441165465271635e-14
0.5899999999989077 1.7216071549492458 -4.640924813676946e-14
0.5999999999989343 1.6928689845043214 -4.286035206066387e-14
0.609999999998961 1.661423849596452 -3.979851728634374e-14
0.6199999999989876 1.6273658123248524 -3.7317967893914066e-14
0.6299999999990142 1.590797249096847 -3.41217171610452e-14
0.639999999999041 1.5518286802310493 -3.115561097281061e-14
0.6499999999990678 1.5105785870005362 -2.6922321901074285e-14
0.6599999999990948 1.467173216669103 -2.3913131724559553e-14
0.6699999999991215 1.4217463761135227 -2.010124618573405e-14
0.6799999999991486 1.3744392146635518 -1.6699425055016416e-14
0.6899999999991757 1.3253999968293326 -1.3209079704489106e-14
0.6999999999992027 1.2747838656225117 -1.0793848723567963e-14
0.7099999999992298 1.222752597213052 -7.512578008393981e-15
0.7199999999992569 1.1694743476981204 -4.325297208018901e-15
0.729999999999284 1.1151233927926216 -1.25771601063628e-15
0.7399999999993109 1.05987986128292 1.848243729094157e-15
0.7499999999993378 1.0039294631158464 4.847590974576823e-15
0.7599999999993646 0.9474632130244692 7.635352589095492e-15
0.7699999999993915 0.890677150619952 1.0496218177803084e-14
0.7799999999994184 0.8337720579054437 1.3353245565105964e-14
0.7899999999994454 0.7769531751930546 1.4804353290257952e-14
0.7999999999994721 0.720429916428733 1.6965042521542414e-14
0.809999999999499 0.6644155849521607 1.8707538815054686e-14
0.8199999999995258 0.6091270907396783 1.9780332270726794e-14
0.8299999999995523 0.5547846701977244 2.0698581054480958e-14
0.8399999999995788 0.5016116095923339 2.0922482911924792e-14
0.8499999999996053 0.44983397321687857 2.0848219699840732e-14
0.8599999999996317 0.3996803374155262 2.0694571311311788e-14
0.8699999999996582 0.35138153159377516 1.9785037774509686e-14
0.8799999999996847 0.3051703873600372 1.880688489343755e-14
0.8899999999997111 0.2612814969534978 1.738509457818594e-14
0.8999999999997376 0.21995098212352138 1.571240825197602e-14
0.909999999999764 0.18141627463470522 1.376322988288357e-14
0.9199999999997904 0.14591590957932307 1.1905368376720353e-14
0.9299999999998169 0.1136893326854957 9.756651913621552e-15
0.9399999999998433 0.08497672281494391 7.643536689060743e-15
0.9499999999998696 0.06001883084875214 5.646716558651593e-15
0.9599999999998958 0.039056836163261985 3.869808116518189e-15
0.9699999999999219 0.02233222190108384 2.3194227515429047e-15
0.9799999999999481 0.01008667024438285 1.0926464219976196e-15
0.989999999999974 0.002561978899126807 2.875106378921084e-16

CELLS 100 300
2 0 2
2 2 3
2 3 4
2 4 5
2 5 6
2 6 7
2 7 8
2 8 9
2 9 10
2 10 11
2 11 12
2 12 13
2 13 14
2 14 15
2 15 16
2 16 17
2 17 18
2 18 19
2 19 20
2 20 21
2 21 22
2 22 23
2 23 24
2 24 25
2 25 26
2 26 27
2 27 28
2 28 29
2 29 30
2 30 31
2 31 32
2 32 33
2 33 34
2 34 35
2 35 36
2 36 37
2 37 38
2 38 39
2 39 40
2 40 41
2 41 42
2 42 43
2 43 44
2 44 45
2 45 46
2 46 47
2 47 48
2 48 49
2 49 50
2 50 51
2 51 52
2 52 53
2 53 54
2 54 55
2 55 56
2 56 57
2 57 58
2 58 59
2 59 60
2 60 61
2 61 62
2 62 63
2 63 64
2 64 65
2 65 66
2 66 67
2 67 68
2 68 69
2 69 70
2 70 71
2 71 72
2 72 73
2 73 74
2 74 75
2 75 76
2 76 77
2 77 78
2 78 79
2 79 80
2 80 81
2 81 82
2 82 83
2 83 84
2 84 85
2 85 86
2 86 87
2 87 88
2 88 89
2 89 90
2 90 91
2 91 92
2 92 93
2 93 94
2 94 95
2 95 96
2 96 97
2 97 98
2 98 99
2 99 100
2 100 1

CELL_TYPES 100
3
3
3
3
3
3
3
3
3
3
3
3
3
3
3
3
3
3
3
3
3
3
3
3
3
3
3
3
3
3
3
3
3
3
3
3
3
3
3
3
3
3
3
3
3
3
3
3
3
3
3
3
3
3
3
3
3
3
3
3
3
3
3
3
3
3
3
3
3
3
3
3
3
3
3
3
3
3
3
3
3
3
3
3
3
3
3
3
3
3
3
3
3
3
3
3
3
3
3
3

POINT_DATA 101
SCALARS DISPL float 1
LOOKUP_TABLE default
0.0
0.0
0.0003515844582169249
0.0013842098755055742
0.003064686496929367
0.005359832036923327
0.008236480063438904
0.01166149145894428
0.015601768792238868
0.020024273435209582
0.02489604525887372
0.03018422474334474
0.035856077336748345
0.04187901989863015
0.04822064906401611
0.054848771365061035
0.061731434948097706
0.06883696272496163
0.07613398679869399
0.08359148400508222
0.09117881241304567
0.09886574862860695
0.1066225257491074
0.11441987181640047
0.12222904862005267
0.13002189070407402
0.13777084443333945
0.14544900697875293
0.15303016508326855
0.1604888334741321
0.16780029279015873
0.17494062689651257
0.1818867594632791
0.18861648968814798
0.19510852704772327
0.20134252496636132
0.2072991132959913
0.21295992950510012
0.21830764847994183
0.22332601084608764
0.22799984972361073
0.23231511583454278
0.23625890088670382
0.23981945916359637
0.24298622725577154
0.2457498418748839
0.24810215569757935
0.25003625119235434
0.25154645238862033
0.2526283345533505
0.25327873174691123
0.2534957422359316
0.2532787317473686
0.25262833455425665
0.25154645238996304
0.25003625119411876
0.2481021556997475
0.24574984187743554
0.24298622725868307
0.23981945916684053
0.2362589008902507
0.2323151158383614
0.22799984972766849
0.22332601085035242
0.21830764848438114
0.21295992950968226
0.20729911330068557
0.20134252497113658
0.1951085270525496
0.18861648969299455
0.18188675946811536
0.17494062690130877
0.16780029279488656
0.16048883347876555
0.15303016508778336
0.1454490069831269
0.1377708444375522
0.1300218907081074
0.12222904862389107
0.11441987182003197
0.10662252575252165
0.09886574863179252
0.09117881241599404
0.0835914840077875
0.07613398680115192
0.06883696272717228
0.06173143495006405
0.05484877136678755
0.048220649065509734
0.04187901989990277
0.035856077337813236
0.030184224744213683
0.024896045259560334
0.020024273435729528
0.015601768792610023
0.011661491459186
0.008236480063572976
0.005359832036975303
0.0030646864969278076
0.0013842098754814614
0.000351584458203276

