# vtk DataFile Version 2.0
mesh vtk view
ASCII
DATASET UNSTRUCTURED_GRID
POINTS 101 double
0.0 0.0 0.0
1.0 0.0 0.0
0.009999999999980747 0.001630350208598533 3.924267669426743e-14
0.019999999999961587 0.006418790155628173 1.1161264591618909e-13
0.029999999999941847 0.014211413937060585 1.7221470281459688e-13
0.0399999999999202 0.02485435028547115 2.2234102253785094e-13
0.049999999999897564 0.0381938014485842 2.6356443755655017e-13
0.05999999999987578 0.05407609633566159 2.9788638042450524e-13
0.06999999999985736 0.07234775716177617 3.266516909871577e-13
0.07999999999984149 0.09285557882079452 3.506797465149198e-13
0.0899999999998257 0.1154467202189012 3.717626117685198e-13
0.09999999999980999 0.1399688068018478 3.9053368732680776e-13
0.1099999999997942 0.16627004351092414 4.065694575502879e-13
0.1199999999997775 0.19419933740503148 4.224733189324493e-13
0.12999999999975487 0.22360642918911255 4.3368224126173137e-13
0.13999999999972626 0.2543420328927833 4.3272960751535833e-13
0.14999999999969657 0.2862579829470772 4.191688229089577e-13
0.1599999999996672 0.3192073879121432 3.921871487793759e-13
0.16999999999963766 0.3530447901144268 3.5452057761222377e-13
0.17999999999960822 0.3876263304581596 3.036996263551512e-13
0.18999999999957876 0.4228099176831574 2.441314617976313e-13
0.19999999999954923 0.4584554013489671 1.8186124074134495e-13
0.2099999999995198 0.49442474783429324 1.176577247662052e-13
0.21999999999949038 0.5305822186502608 6.840145695915719e-14
0.229999999999461 0.5667945503767157 4.7273868509044724e-14
0.23999999999943175 0.6029311355423225 4.236565076945013e-14
0.24999999999940228 0.638864203781458 3.7882989899449066e-14
0.259999999999373 0.6744690026143028 3.347808970903966e-14
0.2699999999993436 0.7096239772107324 2.855694841310813e-14
0.2799999999993144 0.7442109485136815 2.3558290338365324e-14
0.28999999999928505 0.7781152891136548 1.837117636160445e-14
0.29999999999925564 0.811226096282994 1.3139509425827683e-14
0.3099999999992262 0.8434363615962396 7.751819574537726e-15
0.3199999999991969 0.8746431365816041 1.947083598556579e-15
0.32999999999916785 0.9047476938680431 -3.371641278923568e-15
0.3399999999991386 0.9336556833127401 -8.725677744937619e-15
0.34999999999910936 0.9612772826149367 -1.3606933852309078e-14
0.3599999999990802 0.987527341943965 -1.8406358538720953e-14
0.369999999999051 1.0123255221319531 -2.2747147412545258e-14
0.379999999999022 1.0355964260051296 -2.6998779797229792e-14
0.3899999999989929 1.057269722451653 -3.0514367989170293e-14
0.3999999999989638 1.0772802628486788 -3.3864655294538733e-14
0.4099999999989346 1.0955681894967089 -3.661418746438847e-14
0.4199999999989055 1.112079035735189 -3.9332362658284665e-14
0.42999999999887645 1.126763817439833 -4.12048363728505e-14
0.4399999999988473 1.1395791156290829 -4.276672169527571e-14
0.4499999999988182 1.150487149934611 -4.444940947350938e-14
0.45999999999878893 1.1594558427185517 -4.5125821520362334e-14
0.4699999999987598 1.1664588736484311 -4.6253275057570295e-14
0.4799999999987308 1.1714757245692378 -4.624784537155265e-14
0.4899999999987017 1.1744917145409544 -4.6335850218402374e-14
0.4999999999986835 1.1754980249388505 -4.603323753006961e-14
0.5099999999986992 1.174491714543075 -4.5518725876920666e-14
0.5199999999987256 1.1714757245734397 -4.4447955071002636e-14
0.5299999999987522 1.1664588736546575 -4.307101276707397e-14
0.5399999999987787 1.1594558427267336 -4.1197605257438634e-14
0.5499999999988052 1.150487149944665 -3.9051221989429834e-14
0.5599999999988319 1.1395791156409152 -3.705525146608559e-14
0.5699999999988585 1.126763817453334 -3.4185662956333004e-14
0.5799999999988852 1.1120790357502328 -3.209892347790013e-14
0.5899999999989116 1.0955681895131564 -2.9533157905216924e-14
0.5999999999989382 1.0772802628663862 -2.7274769493149734e-14
0.6099999999989648 1.0572697224704692 -2.5326329182218746e-14
0.6199999999989912 1.035596426024906 -2.3747797750672586e-14
0.6299999999990178 1.012325522152539 -2.1713820011574218e-14
0.6399999999990444 0.9875273419652131 -1.9826297891788567e-14
0.649999999999071 0.9612772826367049 -1.713238666432e-14
0.6599999999990978 0.9336556833348837 -1.521744746108335e-14
0.6699999999991244 0.9047476938904235 -1.2791702118194395e-14
0.6799999999991513 0.8746431366040783 -1.0626906853192264e-14
0.6899999999991782 0.8434363616186662 -8.405777993765795e-15
0.6999999999992049 0.8112260963052347 -6.868812824088704e-15
0.7099999999992318 0.7781152891355785 -4.780731459887078e-15
0.7199999999992586 0.7442109485351676 -2.752461859648392e-15
0.7299999999992854 0.7096239772316683 -8.003647340412691e-16
0.7399999999993121 0.6744690026345855 1.1761551003326453e-15
0.7499999999993388 0.6388642038009932 3.0848306201852505e-15
0.7599999999993655 0.6029311355610258 4.858860738515313e-15
0.7699999999993922 0.5667945503945149 6.679411567692871e-15
0.7799999999994189 0.5305822186671005 8.497519905067431e-15
0.7899999999994456 0.4944247478501257 9.420952093800515e-15
0.7999999999994722 0.45845540136373913 1.0795936150072444e-14
0.8099999999994989 0.42280991769682946 1.1904797427762074e-14
0.8199999999995256 0.3876263304707044 1.2587484172280687e-14
0.8299999999995521 0.3530447901258246 1.3171824307396972e-14
0.8399999999995785 0.3192073879223943 1.3314307307588502e-14
0.849999999999605 0.2862579829561954 1.3267048899898648e-14
0.8599999999996314 0.2543420329007894 1.3169272652652956e-14
0.8699999999996578 0.22360642919603874 1.259047858377889e-14
0.8799999999996843 0.19419933741093276 1.196801765946026e-14
0.8899999999997107 0.16627004351586222 1.1063242004300145e-14
0.8999999999997371 0.13996880680587725 9.998805251257468e-15
0.9099999999997634 0.11544672022208513 8.758419016380453e-15
0.9199999999997899 0.09285557882320558 7.576143512458406e-15
0.9299999999998163 0.07234775716349727 6.208778490486442e-15
0.9399999999998427 0.05407609633678248 4.864068802129564e-15
0.9499999999998691 0.03819380144920591 3.5933650827782864e-15
0.9599999999998953 0.02485435028571217 2.4626051650570292e-15
0.9699999999999216 0.014211413937053352 1.475996296436394e-15
0.9799999999999478 0.006418790155516358 6.953204503621215e-16
0.9899999999999739 0.001630350208535241 1.8296131502225079e-16

CELLS 100 300
2 0 2
2 2 3
2 3 4
2 4 5
2 5 6
2 6 7
2 7 8
2 8 9
2 9 10
2 10 11
2 11 12
2 12 13
2 13 14
2 14 15
2 15 16
2 16 17
2 17 18
2 18 19
2 19 20
2 20 21
2 21 22
2 22 23
2 23 24
2 24 25
2 25 26
2 26 27
2 27 28
2 28 29
2 29 30
2 30 31
2 31 32
2 32 33
2 33 34
2 34 35
2 35 36
2 36 37
2 37 38
2 38 39
2 39 40
2 40 41
2 41 42
2 42 43
2 43 44
2 44 45
2 45 46
2 46 47
2 47 48
2 48 49
2 49 50
2 50 51
2 51 52
2 52 53
2 53 54
2 54 55
2 55 56
2 56 57
2 57 58
2 58 59
2 59 60
2 60 61
2 61 62
2 62 63
2 63 64
2 64 65
2 65 66
2 66 67
2 67 68
2 68 69
2 69 70
2 70 71
2 71 72
2 72 73
2 73 74
2 74 75
2 75 76
2 76 77
2 77 78
2 78 79
2 79 80
2 80 81
2 81 82
2 82 83
2 83 84
2 84 85
2 85 86
2 86 87
2 87 88
2 88 89
2 89 90
2 90 91
2 91 92
2 92 93
2 93 94
2 94 95
2 95 96
2 96 97
2 97 98
2 98 99
2 99 100
2 100 1

CELL_TYPES 100
3
3
3
3
3
3
3
3
3
3
3
3
3
3
3
3
3
3
3
3
3
3
3
3
3
3
3
3
3
3
3
3
3
3
3
3
3
3
3
3
3
3
3
3
3
3
3
3
3
3
3
3
3
3
3
3
3
3
3
3
3
3
3
3
3
3
3
3
3
3
3
3
3
3
3
3
3
3
3
3
3
3
3
3
3
3
3
3
3
3
3
3
3
3
3
3
3
3
3
3

POINT_DATA 101
SCALARS DISPL float 1
LOOKUP_TABLE default
0.0
0.0
0.0003515844582169249
0.0013842098755055742
0.003064686496929367
0.005359832036923327
0.008236480063438904
0.01166149145894428
0.015601768792238868
0.020024273435209582
0.02489604525887372
0.03018422474334474
0.035856077336748345
0.04187901989863015
0.04822064906401611
0.054848771365061035
0.061731434948097706
0.06883696272496163
0.07613398679869399
0.08359148400508222
0.09117881241304567
0.09886574862860695
0.1066225257491074
0.11441987181640047
0.12222904862005267
0.13002189070407402
0.13777084443333945
0.14544900697875293
0.15303016508326855
0.1604888334741321
0.16780029279015873
0.17494062689651257
0.1818867594632791
0.18861648968814798
0.19510852704772327
0.20134252496636132
0.2072991132959913
0.21295992950510012
0.21830764847994183
0.22332601084608764
0.22799984972361073
0.23231511583454278
0.23625890088670382
0.23981945916359637
0.24298622725577154
0.2457498418748839
0.24810215569757935
0.25003625119235434
0.25154645238862033
0.2526283345533505
0.25327873174691123
0.2534957422359316
0.2532787317473686
0.25262833455425665
0.25154645238996304
0.25003625119411876
0.2481021556997475
0.24574984187743554
0.24298622725868307
0.23981945916684053
0.2362589008902507
0.2323151158383614
0.22799984972766849
0.22332601085035242
0.21830764848438114
0.21295992950968226
0.20729911330068557
0.20134252497113658
0.1951085270525496
0.18861648969299455
0.18188675946811536
0.17494062690130877
0.16780029279488656
0.16048883347876555
0.15303016508778336
0.1454490069831269
0.1377708444375522
0.1300218907081074
0.12222904862389107
0.11441987182003197
0.10662252575252165
0.09886574863179252
0.09117881241599404
0.0835914840077875
0.07613398680115192
0.06883696272717228
0.06173143495006405
0.05484877136678755
0.048220649065509734
0.04187901989990277
0.035856077337813236
0.030184224744213683
0.024896045259560334
0.020024273435729528
0.015601768792610023
0.011661491459186
0.008236480063572976
0.005359832036975303
0.0030646864969278076
0.0013842098754814614
0.000351584458203276

