# vtk DataFile Version 2.0
mesh vtk view
ASCII
DATASET UNSTRUCTURED_GRID
POINTS 101 double
0.0 0.0 0.0
1.0 0.0 0.0
0.009999999999981052 3.8272909367317474e-15 -0.0002329071725905612
0.01999999999996226 1.075864013818973e-14 -0.0009169700220420301
0.02999999999994291 1.627880421220091e-14 -0.0020302019907106564
0.03999999999992165 2.0494377628903e-14 -0.0035506214689633403
0.04999999999989939 2.3514389410330478e-14 -0.0054562573493311135
0.05999999999987805 2.544613147331355e-14 -0.007725156618850381
0.06999999999986013 2.6401543758807658e-14 -0.010335393879673384
0.07999999999984476 2.6487822776675788e-14 -0.01326508268806578
0.08999999999982944 2.5826874458206165e-14 -0.016492388602052904
0.09999999999981413 2.4530893140856603e-14 -0.019995543828169777
0.1099999999997988 2.2723946714546604e-14 -0.02375286335802839
0.1199999999997825 2.052134323864022e-14 -0.027742762485756294
0.1299999999997603 1.8054734689861328e-14 -0.03194377559777282
0.1399999999997321 1.5490905590313694e-14 -0.03633457612687902
0.1499999999997028 1.2941226291456196e-14 -0.04089399756322186
0.1599999999996737 1.049289369074e-14 -0.04560105541539324
0.1699999999996445 8.261982134999047e-15 -0.050434970015741064
0.1799999999996153 6.3010009955116665e-15 -0.055375190064868164
0.1899999999995861 4.573858627680067e-15 -0.06040141681131773
0.1999999999995569 3.0835045967892944e-15 -0.06549362876359531
0.2099999999995277 1.8119802022408847e-15 -0.0706321068329431
0.2199999999994985 8.407138958405789e-16 -0.07579745980666437
0.2299999999994693 2.5570035464075963e-16 -0.08097065005331006
0.2399999999994402 5.606649318968882e-17 -0.08613301936268962
0.2499999999994109 3.587934574201812e-17 -0.09126631482542896
0.2599999999993817 5.592184387387821e-17 -0.09635271465869831
0.2699999999993525 3.089522446644942e-17 -0.10137485388676552
0.2799999999993234 3.1464069801520104e-17 -0.10631584978719273
0.2899999999992942 2.2428905445484644e-17 -0.11115932701576643
0.299999999999265 2.6250724707273267e-17 -0.11588944232567823
0.3099999999992358 1.6230377490703478e-17 -0.12049090879900538
0.3199999999992066 7.96075234755972e-18 -0.12494901951120693
0.3299999999991775 -3.906526205590559e-18 -0.12924967055213413
0.3399999999991483 -2.063621044403915e-17 -0.13337938332995616
0.349999999999119 -2.8329278818988385e-17 -0.13732532608742212
0.3599999999990898 -3.173432467006878e-17 -0.1410753345630078
0.3699999999990606 -3.750219443546924e-17 -0.14461793173273202
0.3799999999990315 -4.90404560001715e-17 -0.14794234657176958
0.3899999999990023 -7.293786709521608e-17 -0.15103853177842888
0.3999999999989731 -5.573649135768323e-17 -0.15389718040658898
0.4099999999989439 -8.211248691013426e-17 -0.15650974135632148
0.4199999999989147 -5.4222590395063333e-17 -0.1588684336761183
0.4299999999988856 -9.714127466720985e-17 -0.1609662596339384
0.4399999999988564 -1.1031057434743761e-16 -0.1627970165181307
0.4499999999988272 -1.0835701739255387e-16 -0.16435530713321966
0.4599999999987979 -9.301216432866105e-17 -0.16563654895951058
0.4699999999987687 -1.3541014409039586e-16 -0.16663698194950727
0.4799999999987396 -1.201728730685151e-16 -0.16735367493820846
0.4899999999987104 -1.1420793730708753e-16 -0.16778453064846904
0.4999999999986921 -1.1438378930348885e-16 -0.16792828927675627
0.5099999999987076 -1.3984589614840307e-16 -0.16778453064880577
0.5199999999987339 -1.563733933720571e-16 -0.16735367493887582
0.5299999999987604 -1.1308064343407056e-16 -0.166636981950496
0.5399999999987867 -1.3257284294655716e-16 -0.1656365489608093
0.549999999998813 -1.095343128572997e-16 -0.1643553071348145
0.5599999999988394 -1.573255335454115e-16 -0.16279701652000597
0.5699999999988659 -1.5456682000970298e-16 -0.16096625963607622
0.5799999999988923 -1.3537864307907648e-16 -0.15886843367849865
0.5899999999989186 -1.4971723379012336e-16 -0.15650974135892293
0.5999999999989449 -1.324988161362183e-16 -0.15389718040938963
0.6099999999989714 -1.308793106885613e-16 -0.15103853178140594
0.6199999999989977 -1.399125881762761e-16 -0.14794234657490077
0.6299999999990241 -1.32680772259441e-16 -0.14461793173599477
0.6399999999990504 -1.300825308993784e-16 -0.14107533456638008
0.6499999999990768 -1.4708745119657884e-16 -0.13732532609088152
0.6599999999991032 -1.4524470723567754e-16 -0.13337938333348046
0.6699999999991295 -1.2934693673285373e-16 -0.1292496705557017
0.679999999999156 -1.4333344145384415e-16 -0.12494901951479598
0.6899999999991824 -1.438499120841211e-16 -0.12049090880259455
0.6999999999992087 -1.3286057999947765e-16 -0.11588944232924736
0.7099999999992351 -1.385192765613812e-16 -0.11115932701929625
0.7199999999992615 -1.4271237085226757e-16 -0.10631584979066555
0.7299999999992879 -1.3510525761682787e-16 -0.10137485389016497
0.7399999999993142 -1.333026540464868e-16 -0.09635271466200955
0.7499999999993405 -1.338315270546302e-16 -0.09126631482863883
0.759999999999367 -1.1928689725313725e-16 -0.0861330193657861
0.7699999999993933 -8.897904968695835e-17 -0.08097065005628455
0.7799999999994197 -1.0129432605898102e-16 -0.07579745980951097
0.789999999999446 -1.0620932510063568e-16 -0.07063210683565742
0.7999999999994724 -9.590007797508905e-17 -0.06549362876617393
0.8099999999994988 -8.833872468681699e-17 -0.06040141681375877
0.8199999999995252 -9.465101742299832e-17 -0.05537519006717023
0.8299999999995517 -7.910517277546718e-17 -0.050434970017903036
0.839999999999578 -7.589000872950794e-17 -0.045601055417415
0.8499999999996044 -6.796500275890338e-17 -0.04089399756510366
0.8599999999996307 -5.985316298583894e-17 -0.036334576128620635
0.869999999999657 -5.746278301597604e-17 -0.03194377559937474
0.8799999999996835 -5.125429711369972e-17 -0.027742762487221507
0.8899999999997098 -4.0780858411984966e-17 -0.023752863359359517
0.8999999999997362 -3.245759045015011e-17 -0.019995543829367256
0.9099999999997626 -3.267080691956534e-17 -0.0164923886031171
0.9199999999997889 -2.3225837984569636e-17 -0.013265082688997435
0.9299999999998153 -1.9831593543338028e-17 -0.010335393880473599
0.9399999999998417 -1.445228409368087e-17 -0.007725156619520083
0.9499999999998682 -1.0622813604741451e-17 -0.005456257349871665
0.9599999999998945 -6.439798327098614e-18 -0.003550621469377393
0.9699999999999208 -3.683903105377308e-18 -0.002030201991001665
0.9799999999999472 -1.9249359990411586e-18 -0.0009169700222138414
0.9899999999999736 -4.600814373552951e-19 -0.0002329071726471627

CELLS 100 300
2 0 2
2 2 3
2 3 4
2 4 5
2 5 6
2 6 7
2 7 8
2 8 9
2 9 10
2 10 11
2 11 12
2 12 13
2 13 14
2 14 15
2 15 16
2 16 17
2 17 18
2 18 19
2 19 20
2 20 21
2 21 22
2 22 23
2 23 24
2 24 25
2 25 26
2 26 27
2 27 28
2 28 29
2 29 30
2 30 31
2 31 32
2 32 33
2 33 34
2 34 35
2 35 36
2 36 37
2 37 38
2 38 39
2 39 40
2 40 41
2 41 42
2 42 43
2 43 44
2 44 45
2 45 46
2 46 47
2 47 48
2 48 49
2 49 50
2 50 51
2 51 52
2 52 53
2 53 54
2 54 55
2 55 56
2 56 57
2 57 58
2 58 59
2 59 60
2 60 61
2 61 62
2 62 63
2 63 64
2 64 65
2 65 66
2 66 67
2 67 68
2 68 69
2 69 70
2 70 71
2 71 72
2 72 73
2 73 74
2 74 75
2 75 76
2 76 77
2 77 78
2 78 79
2 79 80
2 80 81
2 81 82
2 82 83
2 83 84
2 84 85
2 85 86
2 86 87
2 87 88
2 88 89
2 89 90
2 90 91
2 91 92
2 92 93
2 93 94
2 94 95
2 95 96
2 96 97
2 97 98
2 98 99
2 99 100
2 100 1

CELL_TYPES 100
3
3
3
3
3
3
3
3
3
3
3
3
3
3
3
3
3
3
3
3
3
3
3
3
3
3
3
3
3
3
3
3
3
3
3
3
3
3
3
3
3
3
3
3
3
3
3
3
3
3
3
3
3
3
3
3
3
3
3
3
3
3
3
3
3
3
3
3
3
3
3
3
3
3
3
3
3
3
3
3
3
3
3
3
3
3
3
3
3
3
3
3
3
3
3
3
3
3
3
3

POINT_DATA 101
SCALARS DISPL float 1
LOOKUP_TABLE default
0.0
0.0
0.0003515844581174384
0.0013842098752206826
0.0030646864964856725
0.005359832036345838
0.00823648006275103
0.011661491458167847
0.015601768791394096
0.020024273434315117
0.024896045257946586
0.030184224742400498
0.03585607733580124
0.04187901989769255
0.04822064906309868
0.05484877136417258
0.06173143494724591
0.06883696272415292
0.07613398679793251
0.08359148400436954
0.09117881241238036
0.09886574862798582
0.10662252574852522
0.11441987181585148
0.12222904861953336
0.13002189070358114
0.13777084443287071
0.14544900697830837
0.153030165082848
0.16048883347373544
0.16780029278978592
0.17494062689616344
0.1818867594629535
0.1886164896878459
0.19510852704744525
0.2013425249661082
0.20729911329576414
0.21295992950489973
0.2183076484797697
0.22332601084594425
0.2279998497234965
0.23231511583445766
0.2362589008866476
0.23981945916356837
0.2429862272557708
0.2457498418749094
0.24810215569762997
0.25003625119242945
0.2515464523887195
0.2526283345534738
0.253278731747059
0.25349574223610444
0.2532787317475673
0.2526283345544812
0.25154645239021206
0.25003625119438994
0.24810215570003746
0.24574984187774024
0.2429862272589979
0.2398194591671616
0.2362589008905746
0.23231511583868536
0.22799984972799053
0.22332601085067094
0.21830764848469497
0.21295992950999035
0.20729911330098624
0.20134252497142827
0.1951085270528307
0.18861648969326372
0.18188675946837152
0.1749406269015512
0.16780029279511435
0.16048883347897783
0.15303016508797962
0.14544900698330684
0.13777084443771614
0.13002189070825543
0.12222904862402349
0.11441987182014857
0.10662252575262261
0.09886574863187837
0.09117881241606524
0.08359148400784462
0.07613398680119611
0.06883696272720487
0.061731434950086574
0.05484877136680163
0.04822064906551686
0.041879019899904356
0.03585607733781064
0.030184224744208153
0.02489604525955304
0.020024273435721492
0.015601768792602059
0.011661491459178793
0.008236480063567017
0.00535983203697087
0.0030646864969249635
0.0013842098754800398
0.0003515844582028811

