# vtk DataFile Version 2.0
mesh vtk view
ASCII
DATASET UNSTRUCTURED_GRID
POINTS 101 double
0.0 0.0 0.0
1.0 0.0 0.0
0.009999999999980221 0.004425236280481733 1.0651583674158305e-13
0.019999999999960435 0.01742243042241933 3.0294861034394186e-13
0.029999999999940026 0.03857383782916445 4.674399076396202e-13
0.03999999999991771 0.06746180791770742 6.034970611741669e-13
0.04999999999989443 0.10366888964615713 7.153891876534935e-13
0.059999999999871885 0.14677797576822435 8.085487468665144e-13
0.06999999999985258 0.19637248372482108 8.866260183937138e-13
0.07999999999983587 0.25203657108501376 9.518450262547825e-13
0.08999999999981932 0.3133553834513033 1.0090699462288398e-12
0.0999999999998029 0.3799153327478727 1.0600200084584785e-12
0.10999999999978634 0.45130440381536563 1.1035456704936388e-12
0.11999999999976893 0.5271124872422284 1.1467132942452198e-12
0.1299999999997455 0.6069317363704485 1.1771375119961282e-12
0.13999999999971627 0.6903569464232691 1.1745517918274013e-12
0.14999999999968594 0.7769859537134954 1.1377439478957426e-12
0.159999999999656 0.8664200529043888 1.0645079752583062e-12
0.16999999999962598 0.9582644303105872 9.62270139233179e-13
0.1799999999995961 1.0521286112435764 8.243275572496963e-13
0.18999999999956615 1.1476269194257132 6.626425391649994e-13
0.19999999999953608 1.2443789465186252 4.936233677265079e-13
0.2099999999995062 1.3420100298359392 3.193566815082713e-13
0.21999999999947642 1.4401517363364225 1.8566109746056955e-13
0.22999999999944679 1.538442351022514 1.2831478595312144e-13
0.2399999999994173 1.6365273679005898 1.149924806599361e-13
0.24999999999938757 1.7340599816925293 1.0282525829850464e-13
0.259999999999358 1.8307015785245364 9.086910063882195e-14
0.26999999999932844 1.9261222238577027 7.75117171212935e-14
0.2799999999992989 2.0200011459657072 6.394393091842018e-14
0.2899999999992693 2.112027213308492 4.9864621552926375e-14
0.29999999999923954 2.2018994041966984 3.5664382727246574e-14
0.30999999999920974 2.289327267189794 2.1040653130888117e-14
0.3199999999991804 2.3740313707214975 5.284941196082144e-15
0.32999999999915125 2.4557437404989746 -9.151597757078257e-15
0.339999999999122 2.534208283277438 -2.368398245054497e-14
0.34999999999909276 2.6091811956691147 -3.693310617055322e-14
0.3599999999990637 2.6804313567050486 -4.996011603367117e-14
0.36999999999903455 2.7477407029295877 -6.174225726262285e-14
0.3799999999990057 2.8109045848710665 -7.32824023067666e-14
0.3899999999989767 2.869732103797344 -8.282471311346224e-14
0.3999999999989478 2.924046427732129 -9.191835008517658e-14
0.4099999999989188 2.973685085776782 -9.938136597476873e-14
0.41999999999888976 3.018500239852657 -1.0675927007248697e-13
0.4299999999988608 3.0583589330509753 -1.1184169872630852e-13
0.4399999999988317 3.0931433138503683 -1.1608110174431982e-13
0.4499999999988027 3.1227508355368014 -1.2064839714238263e-13
0.45999999999877356 3.1470944302360695 -1.2248437269812637e-13
0.4699999999987446 3.1661026570457422 -1.2554460372769084e-13
0.4799999999987157 3.1797198238307884 -1.2552986600850007e-13
0.4899999999986867 3.187906082325448 -1.257687363070922e-13
0.49999999999866873 3.1906374962625947 -1.2494735901018897e-13
0.5099999999986846 3.1879060823312044 -1.2355082738021326e-13
0.5199999999987114 3.179719823842194 -1.2064444947843576e-13
0.5299999999987383 3.1661026570626425 -1.169070346534865e-13
0.5399999999987649 3.1470944302582775 -1.1182207141304776e-13
0.5499999999987918 3.122750835564091 -1.0599617397130957e-13
0.5599999999988189 3.0931433138824844 -1.0057853969366091e-13
0.5699999999988459 3.0583589330876215 -9.278965659576103e-14
0.5799999999988729 3.0185002398934895 -8.712564944001466e-14
0.5899999999988997 2.9736850858214248 -8.016142859987452e-14
0.5999999999989266 2.924046427780192 -7.403151719569216e-14
0.6099999999989535 2.8697321038484174 -6.874289349459376e-14
0.6199999999989801 2.8109045849247454 -6.445830818039704e-14
0.6299999999990071 2.7477407029854635 -5.893751145998718e-14
0.6399999999990341 2.6804313567627216 -5.3814237134854693e-14
0.6499999999990612 2.6091811957281994 -4.6502192374582864e-14
0.6599999999990885 2.534208283337542 -4.130450025151196e-14
0.6699999999991157 2.4557437405597216 -3.4720334320813365e-14
0.6799999999991433 2.374031370782499 -2.884446145866472e-14
0.6899999999991708 2.2893272672506657 -2.2815683125935732e-14
0.6999999999991984 2.201899404257066 -1.8643920522526486e-14
0.7099999999992259 2.112027213367999 -1.2976271105407786e-14
0.7199999999992536 2.0200011460240264 -7.470967904759922e-15
0.7299999999992812 1.9261222239145286 -2.172418563826302e-15
0.7399999999993085 1.8307015785795897 3.1924209866171808e-15
0.7499999999993356 1.734059981745553 8.373111683359968e-15
0.759999999999363 1.6365273679513563 1.3188336290255853e-14
0.7699999999993902 1.5384423510708263 1.8129831398023512e-14
0.7799999999994175 1.4401517363821303 2.3064696885183032e-14
0.7899999999994448 1.3420100298789128 2.5571155683172832e-14
0.799999999999472 1.2443789465587207 2.9303255264482355e-14
0.8099999999994991 1.147626919462823 3.231302158963992e-14
0.8199999999995261 1.0521286112776265 3.4166028467619014e-14
0.8299999999995529 0.9582644303415241 3.575209454864893e-14
0.8399999999995794 0.8664200529322132 3.613883412059737e-14
0.849999999999606 0.776985953738245 3.601056129972491e-14
0.8599999999996325 0.6903569464449999 3.574516862862946e-14
0.869999999999659 0.6069317363892481 3.417415615597128e-14
0.8799999999996856 0.5271124872582462 3.2484619361392137e-14
0.8899999999997121 0.45130440382876896 3.002879972595754e-14
0.8999999999997387 0.37991533275880973 2.7139614253413133e-14
0.9099999999997651 0.3133553834599454 2.3772851615889805e-14
0.9199999999997915 0.2520365710915581 2.0563818105244246e-14
0.9299999999998181 0.19637248372949262 1.6852398759891774e-14
0.9399999999998444 0.14677797577126678 1.3202472462923105e-14
0.9499999999998707 0.10366888964784463 9.753419510398208e-15
0.9599999999998967 0.06746180791836162 6.684214019440509e-15
0.9699999999999228 0.03857383782914482 4.006275661755927e-15
0.9799999999999488 0.017422430422115835 1.887298365268616e-15
0.9899999999999745 0.004425236280309941 4.966092836318236e-16

CELLS 100 300
2 0 2
2 2 3
2 3 4
2 4 5
2 5 6
2 6 7
2 7 8
2 8 9
2 9 10
2 10 11
2 11 12
2 12 13
2 13 14
2 14 15
2 15 16
2 16 17
2 17 18
2 18 19
2 19 20
2 20 21
2 21 22
2 22 23
2 23 24
2 24 25
2 25 26
2 26 27
2 27 28
2 28 29
2 29 30
2 30 31
2 31 32
2 32 33
2 33 34
2 34 35
2 35 36
2 36 37
2 37 38
2 38 39
2 39 40
2 40 41
2 41 42
2 42 43
2 43 44
2 44 45
2 45 46
2 46 47
2 47 48
2 48 49
2 49 50
2 50 51
2 51 52
2 52 53
2 53 54
2 54 55
2 55 56
2 56 57
2 57 58
2 58 59
2 59 60
2 60 61
2 61 62
2 62 63
2 63 64
2 64 65
2 65 66
2 66 67
2 67 68
2 68 69
2 69 70
2 70 71
2 71 72
2 72 73
2 73 74
2 74 75
2 75 76
2 76 77
2 77 78
2 78 79
2 79 80
2 80 81
2 81 82
2 82 83
2 83 84
2 84 85
2 85 86
2 86 87
2 87 88
2 88 89
2 89 90
2 90 91
2 91 92
2 92 93
2 93 94
2 94 95
2 95 96
2 96 97
2 97 98
2 98 99
2 99 100
2 100 1

CELL_TYPES 100
3
3
3
3
3
3
3
3
3
3
3
3
3
3
3
3
3
3
3
3
3
3
3
3
3
3
3
3
3
3
3
3
3
3
3
3
3
3
3
3
3
3
3
3
3
3
3
3
3
3
3
3
3
3
3
3
3
3
3
3
3
3
3
3
3
3
3
3
3
3
3
3
3
3
3
3
3
3
3
3
3
3
3
3
3
3
3
3
3
3
3
3
3
3
3
3
3
3
3
3

POINT_DATA 101
SCALARS DISPL float 1
LOOKUP_TABLE default
0.0
0.0
0.0003515844582169249
0.0013842098755055742
0.003064686496929367
0.005359832036923327
0.008236480063438904
0.01166149145894428
0.015601768792238868
0.020024273435209582
0.02489604525887372
0.03018422474334474
0.035856077336748345
0.04187901989863015
0.04822064906401611
0.054848771365061035
0.061731434948097706
0.06883696272496163
0.07613398679869399
0.08359148400508222
0.09117881241304567
0.09886574862860695
0.1066225257491074
0.11441987181640047
0.12222904862005267
0.13002189070407402
0.13777084443333945
0.14544900697875293
0.15303016508326855
0.1604888334741321
0.16780029279015873
0.17494062689651257
0.1818867594632791
0.18861648968814798
0.19510852704772327
0.20134252496636132
0.2072991132959913
0.21295992950510012
0.21830764847994183
0.22332601084608764
0.22799984972361073
0.23231511583454278
0.23625890088670382
0.23981945916359637
0.24298622725577154
0.2457498418748839
0.24810215569757935
0.25003625119235434
0.25154645238862033
0.2526283345533505
0.25327873174691123
0.2534957422359316
0.2532787317473686
0.25262833455425665
0.25154645238996304
0.25003625119411876
0.2481021556997475
0.24574984187743554
0.24298622725868307
0.23981945916684053
0.2362589008902507
0.2323151158383614
0.22799984972766849
0.22332601085035242
0.21830764848438114
0.21295992950968226
0.20729911330068557
0.20134252497113658
0.1951085270525496
0.18861648969299455
0.18188675946811536
0.17494062690130877
0.16780029279488656
0.16048883347876555
0.15303016508778336
0.1454490069831269
0.1377708444375522
0.1300218907081074
0.12222904862389107
0.11441987182003197
0.10662252575252165
0.09886574863179252
0.09117881241599404
0.0835914840077875
0.07613398680115192
0.06883696272717228
0.06173143495006405
0.05484877136678755
0.048220649065509734
0.04187901989990277
0.035856077337813236
0.030184224744213683
0.024896045259560334
0.020024273435729528
0.015601768792610023
0.011661491459186
0.008236480063572976
0.005359832036975303
0.0030646864969278076
0.0013842098754814614
0.000351584458203276

