# vtk DataFile Version 2.0
mesh vtk view
ASCII
DATASET UNSTRUCTURED_GRID
POINTS 101 double
0.0 0.0 0.0
1.0 -0.1091625141380436 0.0
0.009999999999981052 0.0006357108623562169 0.0
0.01999999999996226 0.0024461099744815026 0.0
0.02999999999994291 0.00528621087971372 0.0
0.03999999999992165 0.009011409761619679 0.0
0.04999999999989939 0.013477897066368228 0.0
0.05999999999987805 0.01854319852161653 0.0
0.06999999999986013 0.024066824544055447 0.0
0.07999999999984476 0.029911007225591243 0.0
0.08999999999982944 0.03594150438037143 0.0
0.09999999999981413 0.04202845053435016 0.0
0.1099999999997988 0.04804723525555104 0.0
0.1199999999997825 0.05387938986366938 0.0
0.1299999999997603 0.05941346432596758 0.0
0.1399999999997321 0.06454587704392366 0.0
0.1499999999997028 0.06918172126038359 0.0
0.1599999999996737 0.0732355129660658 0.0
0.1699999999996445 0.07663186645085873 0.0
0.1799999999996153 0.07930608502097801 0.0
0.1899999999995861 0.08120465587699051 0.0
0.1999999999995569 0.08228563970786451 0.0
0.2099999999995277 0.08251894718849016 0.0
0.2199999999994985 0.08188649625695876 0.0
0.2299999999994693 0.08038224577724638 0.0
0.2399999999994402 0.0780121029449713 0.0
0.2499999999994109 0.07479370355092221 0.0
0.2599999999993817 0.07075606596056809 0.0
0.2699999999993525 0.06593912137883547 0.0
0.2799999999993234 0.06039312463050448 0.0
0.2899999999992942 0.05417795127873475 0.0
0.299999999999265 0.047362288410397926 0.0
0.3099999999992358 0.04002272782076621 0.0
0.3199999999992066 0.03224277161557799 0.0
0.3299999999991775 0.02411176140192982 0.0
0.3399999999991483 0.015723743247611992 0.0
0.349999999999119 0.007176281440479541 0.0
0.3599999999990898 -0.001430765233944159 0.0
0.3699999999990606 -0.009996490465266922 0.0
0.3799999999990315 -0.01842019607525624 0.0
0.3899999999990023 -0.02660264163981726 0.0
0.3999999999989731 -0.034447273387108734 0.0
0.4099999999989439 -0.04186141789546271 0.0
0.4199999999989147 -0.04875742650668995 0.0
0.4299999999988856 -0.05505375693633633 0.0
0.4399999999988564 -0.0606759792953813 0.0
0.4499999999988272 -0.06555769462860005 0.0
0.4599999999987979 -0.0696413551123265 0.0
0.4699999999987687 -0.07287897622602542 0.0
0.4799999999987396 -0.07523273250300565 0.0
0.4899999999987104 -0.07667542986072562 0.0
0.4999999999986921 -0.07719084899318975 0.0
0.5099999999987076 -0.07677395585878927 0.0
0.5199999999987339 -0.07543097689789185 0.0
0.5299999999987604 -0.07317933824612911 0.0
0.5399999999987867 -0.07004746985205207 0.0
0.549999999998813 -0.06607447704163677 0.0
0.5599999999988394 -0.06130968367733583 0.0
0.5699999999988659 -0.05581205261659997 0.0
0.5799999999988923 -0.0496494906656041 0.0
0.5899999999989186 -0.04289804663000372 0.0
0.5999999999989449 -0.03564101236930193 0.0
0.6099999999989714 -0.02796793794919909 0.0
0.6199999999989977 -0.0199735730428979 0.0
0.6299999999990241 -0.011756747645374384 0.0
0.6399999999990504 -0.0034192059231606658 0.0
0.6499999999990768 0.004935592382531349 0.0
0.6599999999991032 0.013203688156315303 0.0
0.6699999999991295 0.02128184161942855 0.0
0.679999999999156 0.02906873838451696 0.0
0.6899999999991824 0.03646616779291646 0.0
0.6999999999992087 0.043380158753769556 0.0
0.7099999999992351 0.04972205875695594 0.0
0.7199999999992615 0.05540954235007963 0.0
0.7299999999992879 0.06036753614551564 0.0
0.7399999999993142 0.0645290483463195 0.0
0.7499999999993405 0.0678358918375133 0.0
0.759999999999367 0.0702392910680151 0.0
0.7699999999993933 0.07170036423262167 0.0
0.7799999999994197 0.07219047363612058 0.0
0.789999999999446 0.07169143856463059 0.0
0.7999999999994724 0.07019560648331041 0.0
0.8099999999994988 0.06770577990460772 0.0
0.8199999999995252 0.06423499780671713 0.0
0.8299999999995517 0.05980617200655548 0.0
0.839999999999578 0.05445158038433622 0.0
0.8499999999996044 0.04821222029649639 0.0
0.8599999999996307 0.041137026879348074 0.0
0.869999999999657 0.033281962217099476 0.0
0.8799999999996835 0.024708982505066503 0.0
0.8899999999997098 0.015484891363017911 0.0
0.8999999999997362 0.005680088327028924 0.0
0.9099999999997626 -0.004632777745763505 0.0
0.9199999999997889 -0.015380240101847322 0.0
0.9299999999998153 -0.026489519761048283 0.0
0.9399999999998417 -0.03789009472910488 0.0
0.9499999999998682 -0.0495153221530416 0.0
0.9599999999998945 -0.0613041031504712 0.0
0.9699999999999208 -0.07320258061201511 0.0
0.9799999999999472 -0.08516586108721784 0.0
0.9899999999999736 -0.0971597529234634 0.0

CELLS 100 300
2 0 2
2 2 3
2 3 4
2 4 5
2 5 6
2 6 7
2 7 8
2 8 9
2 9 10
2 10 11
2 11 12
2 12 13
2 13 14
2 14 15
2 15 16
2 16 17
2 17 18
2 18 19
2 19 20
2 20 21
2 21 22
2 22 23
2 23 24
2 24 25
2 25 26
2 26 27
2 27 28
2 28 29
2 29 30
2 30 31
2 31 32
2 32 33
2 33 34
2 34 35
2 35 36
2 36 37
2 37 38
2 38 39
2 39 40
2 40 41
2 41 42
2 42 43
2 43 44
2 44 45
2 45 46
2 46 47
2 47 48
2 48 49
2 49 50
2 50 51
2 51 52
2 52 53
2 53 54
2 54 55
2 55 56
2 56 57
2 57 58
2 58 59
2 59 60
2 60 61
2 61 62
2 62 63
2 63 64
2 64 65
2 65 66
2 66 67
2 67 68
2 68 69
2 69 70
2 70 71
2 71 72
2 72 73
2 73 74
2 74 75
2 75 76
2 76 77
2 77 78
2 78 79
2 79 80
2 80 81
2 81 82
2 82 83
2 83 84
2 84 85
2 85 86
2 86 87
2 87 88
2 88 89
2 89 90
2 90 91
2 91 92
2 92 93
2 93 94
2 94 95
2 95 96
2 96 97
2 97 98
2 98 99
2 99 100
2 100 1

CELL_TYPES 100
3
3
3
3
3
3
3
3
3
3
3
3
3
3
3
3
3
3
3
3
3
3
3
3
3
3
3
3
3
3
3
3
3
3
3
3
3
3
3
3
3
3
3
3
3
3
3
3
3
3
3
3
3
3
3
3
3
3
3
3
3
3
3
3
3
3
3
3
3
3
3
3
3
3
3
3
3
3
3
3
3
3
3
3
3
3
3
3
3
3
3
3
3
3
3
3
3
3
3
3

POINT_DATA 101
SCALARS MODE4_2.4281_Hz float 1
LOOKUP_TABLE default
0.0
-0.25471253298876845
0.0014833253454978397
0.00570758994045684
0.012334492052665348
0.021026622777112588
0.03144842648819254
0.04326746321710525
0.056155923936129386
0.06979235019304625
0.08386351022086667
0.0980663845801504
0.11211021559628578
0.1257185763485619
0.13863141676059104
0.1506070464358219
0.16142401627422842
0.1708828635874869
0.1788076883853371
0.1850475317156154
0.18947753037964454
0.19199982598501722
0.19254421010647707
0.19106849126623715
0.1875585734802416
0.18202824020493305
0.17451864161881853
0.16509748724132559
0.15385794988394944
0.1409172908045105
0.1264152196503811
0.11051200629092851
0.09338636491512117
0.07523313376968199
0.056260776604502925
0.036688734244427985
0.016744656694452267
-0.0033384522125363717
-0.023325144418956157
-0.04298045750893123
-0.062072830492906954
-0.08037697123658706
-0.09767664175607968
-0.11376732851560992
-0.1284587661847848
-0.1415772850225564
-0.15296795413340014
-0.1624964952620952
-0.17005094452739267
-0.17554304250701322
-0.17890933634169315
-0.18011198098410944
-0.179139230337175
-0.1760056127617477
-0.17075178924096795
-0.16344409632145487
-0.15417377976381916
-0.1430559285804503
-0.13022812277206663
-0.11584881155307625
-0.10009544213667536
-0.08316236219503785
-0.06525852188146455
-0.04660500376676177
-0.027432411172540232
-0.007978147154041555
0.011516382225906483
0.030808605698069046
0.04965763044533329
0.06782705623053958
0.08508772485013844
0.10122037042546232
0.11601813709956389
0.12928893215018583
0.14085758433953652
0.15056777947474553
0.1582837476208644
0.16389167915870193
0.16730084987611726
0.16844443848428137
0.1672800233174714
0.16378974846105765
0.15798015311075136
0.14988166154900665
0.13954773468196283
0.1270536875634512
0.11249518069182493
0.0959863960518122
0.07765791183989879
0.05765429251182185
0.03613141318037513
0.013253539429734158
-0.010809814740114847
-0.035887226904310426
-0.06180887944244601
-0.08841022103457807
-0.11553575169043043
-0.14304290735109948
-0.17080602142803528
-0.19872034253684165
-0.226706090154748

