# vtk DataFile Version 2.0
mesh vtk view
ASCII
DATASET UNSTRUCTURED_GRID
POINTS 101 double
0.0 0.0 0.0
1.0 0.0 0.0
0.009999999999981532 -0.002561978899226267 -6.1667063376706e-14
0.019999999999963318 -0.010086670244558562 -1.7539130072544006e-13
0.029999999999944578 -0.02233222190109521 -2.7062310442293805e-13
0.03999999999992392 -0.03905683616288325 -3.49393035416623e-13
0.04999999999990226 -0.06001883084777519 -4.1417268758886474e-13
0.05999999999988161 -0.08497672281318253 -4.681071692385084e-13
0.0699999999998645 -0.11368933268279116 -5.133098001226765e-13
0.07999999999984991 -0.1459159095755343 -5.510681730948742e-13
0.0899999999998353 -0.18141627462970197 -5.841983899219599e-13
0.09999999999982062 -0.21995098211718953 -6.136957943706982e-13
0.10999999999980602 -0.26128149694573805 -6.388948618647383e-13
0.11999999999979036 -0.30517038735076385 -6.638866440367063e-13
0.12999999999976886 -0.3513815315828913 -6.815006648398638e-13
0.13999999999974125 -0.39968033740294534 -6.800036689527062e-13
0.14999999999971253 -0.4498339732025501 -6.586938645712195e-13
0.15999999999968398 -0.5016116095762252 -6.162940909390196e-13
0.1699999999996552 -0.5547846701798137 -5.57103764819209e-13
0.17999999999962643 -0.6091270907199653 -4.772422699866664e-13
0.18999999999959766 -0.6644155849306762 -3.8363515425342077e-13
0.19999999999956894 -0.7204299164055201 -2.857819497363993e-13
0.20999999999954014 -0.7769531751681754 -1.8489071034689397e-13
0.2199999999995113 -0.8337720578789816 -1.0748800379296133e-13
0.22999999999948234 -0.890677150591982 -7.428750765707031e-14
0.23999999999945346 -0.9474632129950785 -6.65745940662788e-14
0.24999999999942438 -1.0039294630851487 -5.953041269913428e-14
0.25999999999939544 -1.0598798612510476 -5.2608426685633775e-14
0.2699999999993664 -1.1151233927597228 -4.487520464916993e-14
0.27999999999933756 -1.169474347664357 -3.7020170531716955e-14
0.28999999999930864 -1.2227525971786009 -2.886899142537843e-14
0.2999999999992798 -1.2747838655875625 -2.0647800526300652e-14
0.3099999999992508 -1.3253999967940915 -1.2181430759987859e-14
0.31999999999922174 -1.3744392146282356 -3.0597027977317676e-15
0.3299999999991927 -1.421746376078354 5.298293438308466e-15
0.3399999999991635 -1.4671732166343063 1.3711779313473407e-14
0.3499999999991342 -1.5105785869663297 2.138232462505713e-14
0.3599999999991049 -1.55182868019766 2.8924277703704366e-14
0.3699999999990757 -1.5907972490644986 3.574551736257113e-14
0.37999999999904643 -1.6273658122937757 4.2426653967075406e-14
0.38999999999901713 -1.6614238495668838 4.7951149697267624e-14
0.3999999999989878 -1.692868984476496 5.321588689141803e-14
0.4099999999989584 -1.7216071549234004 5.75365803011819e-14
0.4199999999989291 -1.747552770441012 6.180799846301879e-14
0.4299999999989 -1.7706288559768808 6.475045715733653e-14
0.43999999999887074 -1.7907671817028452 6.720484837829044e-14
0.44999999999884144 -1.807908378468675 6.984907202980048e-14
0.459999999998812 -1.822002038557725 7.09120052462837e-14
0.4699999999987826 -1.8330068014475354 7.26837179476105e-14
0.4799999999987534 -1.8408904243230886 7.267518558386848e-14
0.4899999999987241 -1.845629837135786 7.281347891463233e-14
0.49999999999870565 -1.8472111820467658 7.233794469010942e-14
0.5099999999987209 -1.8456298371391189 7.152942637801821e-14
0.519999999998747 -1.8408904243296917 6.984678654014703e-14
0.5299999999987731 -1.8330068014573195 6.768302006254484e-14
0.5399999999987992 -1.8220020385705822 6.473909397597503e-14
0.5499999999988252 -1.8079083784844743 6.136620598338977e-14
0.5599999999988513 -1.7907671817214388 5.822968087527738e-14
0.5699999999988774 -1.770628855998097 5.3720327502809025e-14
0.5799999999989035 -1.747552770464652 5.0441165465271654e-14
0.5899999999989295 -1.7216071549492464 4.640924813676947e-14
0.5999999999989556 -1.692868984504322 4.286035206066389e-14
0.6099999999989817 -1.6614238495964524 3.979851728634376e-14
0.6199999999990078 -1.627365812324853 3.731796789391408e-14
0.629999999999034 -1.5907972490968476 3.412171716104521e-14
0.6399999999990599 -1.5518286802310497 3.115561097281062e-14
0.6499999999990858 -1.5105785870005368 2.6922321901074295e-14
0.6599999999991116 -1.4671732166691036 2.3913131724559563e-14
0.6699999999991375 -1.4217463761135234 2.0101246185734057e-14
0.6799999999991633 -1.3744392146635522 1.6699425055016422e-14
0.689999999999189 -1.325399996829333 1.320907970448911e-14
0.6999999999992147 -1.2747838656225121 1.0793848723567968e-14
0.7099999999992405 -1.2227525972130524 7.512578008393982e-15
0.719999999999266 -1.1694743476981209 4.325297208018904e-15
0.7299999999992918 -1.115123392792622 1.2577160106362804e-15
0.7399999999993175 -1.0598798612829206 -1.8482437290941577e-15
0.7499999999993433 -1.0039294631158469 -4.8475909745768244e-15
0.7599999999993693 -0.9474632130244696 -7.635352589095495e-15
0.7699999999993951 -0.8906771506199523 -1.0496218177803087e-14
0.779999999999421 -0.8337720579054441 -1.3353245565105969e-14
0.7899999999994467 -0.776953175193055 -1.480435329025796e-14
0.7999999999994726 -0.7204299164287332 -1.696504252154242e-14
0.8099999999994986 -0.6644155849521609 -1.8707538815054695e-14
0.8199999999995247 -0.6091270907396785 -1.97803322707268e-14
0.829999999999551 -0.5547846701977246 -2.0698581054480964e-14
0.8399999999995772 -0.5016116095923341 -2.09224829119248e-14
0.8499999999996035 -0.44983397321687874 -2.084821969984074e-14
0.8599999999996297 -0.39968033741552633 -2.0694571311311797e-14
0.8699999999996559 -0.3513815315937753 -1.9785037774509693e-14
0.8799999999996823 -0.3051703873600373 -1.8806884893437558e-14
0.8899999999997085 -0.2612814969534979 -1.7385094578185947e-14
0.8999999999997349 -0.21995098212352146 -1.5712408251976028e-14
0.9099999999997611 -0.18141627463470528 -1.3763229882883574e-14
0.9199999999997873 -0.14591590957932313 -1.1905368376720356e-14
0.9299999999998138 -0.11368933268549575 -9.756651913621556e-15
0.9399999999998402 -0.08497672281494394 -7.643536689060746e-15
0.9499999999998667 -0.06001883084875216 -5.6467165586515955e-15
0.9599999999998932 -0.039056836163262 -3.86980811651819e-15
0.9699999999999197 -0.02233222190108385 -2.319422751542906e-15
0.9799999999999464 -0.010086670244382853 -1.09264642199762e-15
0.9899999999999731 -0.0025619788991268085 -2.875106378921085e-16

CELLS 100 300
2 0 2
2 2 3
2 3 4
2 4 5
2 5 6
2 6 7
2 7 8
2 8 9
2 9 10
2 10 11
2 11 12
2 12 13
2 13 14
2 14 15
2 15 16
2 16 17
2 17 18
2 18 19
2 19 20
2 20 21
2 21 22
2 22 23
2 23 24
2 24 25
2 25 26
2 26 27
2 27 28
2 28 29
2 29 30
2 30 31
2 31 32
2 32 33
2 33 34
2 34 35
2 35 36
2 36 37
2 37 38
2 38 39
2 39 40
2 40 41
2 41 42
2 42 43
2 43 44
2 44 45
2 45 46
2 46 47
2 47 48
2 48 49
2 49 50
2 50 51
2 51 52
2 52 53
2 53 54
2 54 55
2 55 56
2 56 57
2 57 58
2 58 59
2 59 60
2 60 61
2 61 62
2 62 63
2 63 64
2 64 65
2 65 66
2 66 67
2 67 68
2 68 69
2 69 70
2 70 71
2 71 72
2 72 73
2 73 74
2 74 75
2 75 76
2 76 77
2 77 78
2 78 79
2 79 80
2 80 81
2 81 82
2 82 83
2 83 84
2 84 85
2 85 86
2 86 87
2 87 88
2 88 89
2 89 90
2 90 91
2 91 92
2 92 93
2 93 94
2 94 95
2 95 96
2 96 97
2 97 98
2 98 99
2 99 100
2 100 1

CELL_TYPES 100
3
3
3
3
3
3
3
3
3
3
3
3
3
3
3
3
3
3
3
3
3
3
3
3
3
3
3
3
3
3
3
3
3
3
3
3
3
3
3
3
3
3
3
3
3
3
3
3
3
3
3
3
3
3
3
3
3
3
3
3
3
3
3
3
3
3
3
3
3
3
3
3
3
3
3
3
3
3
3
3
3
3
3
3
3
3
3
3
3
3
3
3
3
3
3
3
3
3
3
3

POINT_DATA 101
SCALARS DISPL float 1
LOOKUP_TABLE default
0.0
0.0
0.0003515844582169249
0.0013842098755055742
0.003064686496929367
0.005359832036923327
0.008236480063438904
0.01166149145894428
0.015601768792238868
0.020024273435209582
0.02489604525887372
0.03018422474334474
0.035856077336748345
0.04187901989863015
0.04822064906401611
0.054848771365061035
0.061731434948097706
0.06883696272496163
0.07613398679869399
0.08359148400508222
0.09117881241304567
0.09886574862860695
0.1066225257491074
0.11441987181640047
0.12222904862005267
0.13002189070407402
0.13777084443333945
0.14544900697875293
0.15303016508326855
0.1604888334741321
0.16780029279015873
0.17494062689651257
0.1818867594632791
0.18861648968814798
0.19510852704772327
0.20134252496636132
0.2072991132959913
0.21295992950510012
0.21830764847994183
0.22332601084608764
0.22799984972361073
0.23231511583454278
0.23625890088670382
0.23981945916359637
0.24298622725577154
0.2457498418748839
0.24810215569757935
0.25003625119235434
0.25154645238862033
0.2526283345533505
0.25327873174691123
0.2534957422359316
0.2532787317473686
0.25262833455425665
0.25154645238996304
0.25003625119411876
0.2481021556997475
0.24574984187743554
0.24298622725868307
0.23981945916684053
0.2362589008902507
0.2323151158383614
0.22799984972766849
0.22332601085035242
0.21830764848438114
0.21295992950968226
0.20729911330068557
0.20134252497113658
0.1951085270525496
0.18861648969299455
0.18188675946811536
0.17494062690130877
0.16780029279488656
0.16048883347876555
0.15303016508778336
0.1454490069831269
0.1377708444375522
0.1300218907081074
0.12222904862389107
0.11441987182003197
0.10662252575252165
0.09886574863179252
0.09117881241599404
0.0835914840077875
0.07613398680115192
0.06883696272717228
0.06173143495006405
0.05484877136678755
0.048220649065509734
0.04187901989990277
0.035856077337813236
0.030184224744213683
0.024896045259560334
0.020024273435729528
0.015601768792610023
0.011661491459186
0.008236480063572976
0.005359832036975303
0.0030646864969278076
0.0013842098754814614
0.000351584458203276

