# vtk DataFile Version 2.0
mesh vtk view
ASCII
DATASET UNSTRUCTURED_GRID
POINTS 101 double
0.0 0.0 0.0
1.0 0.0 0.0
0.009999999999981045 -9.568227341829398e-14 0.005822679314764047
0.019999999999962246 -2.6896600345474404e-13 0.02292425055105082
0.029999999999942885 -4.06970105305024e-13 0.05075504976776656
0.03999999999992161 -5.123594407225765e-13 0.08876553672408377
0.04999999999989935 -5.878597352582637e-13 0.13640643373327824
0.059999999999878 -6.361532868328406e-13 0.1931289154712601
0.06999999999986006 -6.600385939701934e-13 0.2583848469918354
0.07999999999984468 -6.621955694168966e-13 0.33162706720164553
0.08999999999982936 -6.456718614551561e-13 0.41230971505132386
0.09999999999981403 -6.132723285214169e-13 0.4998885957042459
0.1099999999997987 -5.680986678636668e-13 0.5938215839507115
0.11999999999978239 -5.130335809660071e-13 0.6935690621439095
0.12999999999976017 -4.513683672465345e-13 0.7985943899443229
0.13999999999973195 -3.872726397578435e-13 0.9083644031719782
0.14999999999970265 -3.2353065728640587e-13 1.0223499390805495
0.15999999999967354 -2.623223422685008e-13 1.1400263853848345
0.16999999999964435 -2.065495533749768e-13 1.2608742503935304
0.17999999999961513 -1.5752502488779214e-13 1.3843797516217082
0.18999999999958594 -1.1434646569200203e-13 1.5100354202829478
0.19999999999955673 -7.708761491973259e-14 1.6373407190898874
0.20999999999952754 -4.529950505602226e-14 1.765802670823583
0.21999999999949832 -2.1017847396014537e-14 1.8949364951666148
0.2299999999994691 -6.392508866019009e-15 2.0242662513327576
0.23999999999944 -1.4016623297422245e-15 2.153325484067247
0.2499999999994107 -8.969836435504556e-16 2.281657870635731
0.2599999999993815 -1.3980460968469595e-15 2.408817866467465
0.26999999999935226 -7.723806116612378e-16 2.5343713471691456
0.2799999999993232 -7.86601745038005e-16 2.657896244679826
0.289999999999294 -5.607226361371178e-16 2.778983175394169
0.2999999999992648 -6.562681176818337e-16 2.8972360581419645
0.30999999999923555 -4.0575943726758813e-16 3.012272719975144
0.31999999999920636 -1.990188086889936e-16 3.1237254877801828
0.3299999999991773 9.766315513976427e-17 3.2312417638033626
0.3399999999991481 5.159052611009802e-16 3.3344845832489143
0.3499999999991188 7.082319704747119e-16 3.4331331521855635
0.3599999999990896 7.933581167517218e-16 3.5268833640752058
0.36999999999906036 9.375548608867338e-16 3.615448293318311
0.3799999999990313 1.2260114000042911e-15 3.6985586642942505
0.3899999999990021 1.8234466773804074e-15 3.775963294460733
0.3999999999989729 1.393412283942085e-15 3.847429510164736
0.40999999999894365 2.0528121727533627e-15 3.9127435339080487
0.41999999999891446 1.3555647598765875e-15 3.97171084190297
0.4299999999988854 2.4285318666802533e-15 4.024156490848473
0.4399999999988562 2.7577643586859487e-15 4.069925412953279
0.449999999998827 2.708925434813855e-15 4.108882678330503
0.45999999999879776 2.325304108216533e-15 4.140913723987777
0.46999999999876846 3.3852536022599063e-15 4.165924548737694
0.4799999999987394 3.0043218267128868e-15 4.183841873455224
0.48999999999871025 2.855198432677197e-15 4.194613266211738
0.4999999999986919 2.8595947325872298e-15 4.198207231918919
0.5099999999987074 3.4961474037100873e-15 4.194613266220157
0.5199999999987337 3.909334834301439e-15 4.183841873471908
0.5299999999987601 2.827016085851773e-15 4.165924548762413
0.5399999999987865 3.3143210736639386e-15 4.140913724020245
0.5499999999988128 2.7383578214325006e-15 4.1088826783703745
0.5599999999988393 3.933138338635299e-15 4.069925413000162
0.5699999999988657 3.864170500242586e-15 4.024156490901917
0.5799999999988922 3.3844660769769224e-15 3.9717108419624783
0.5899999999989185 3.742930844753095e-15 3.9127435339730847
0.5999999999989448 3.3124704034054675e-15 3.847429510234752
0.6099999999989713 3.271982767214042e-15 3.77596329453516
0.6199999999989976 3.497814704406913e-15 3.6985586643725306
0.629999999999024 3.3170193064860354e-15 3.61544829339988
0.6399999999990503 3.2520632724844697e-15 3.5268833641595125
0.6499999999990766 3.677186279914482e-15 3.433133152272048
0.6599999999991031 3.631117680891949e-15 3.3344845833370216
0.6699999999991294 3.233673418321353e-15 3.231241763892552
0.6799999999991558 3.583336036346115e-15 3.123725487869909
0.6899999999991823 3.596247802103038e-15 3.012272720064873
0.6999999999992086 3.3215144999869512e-15 2.8972360582311927
0.709999999999235 3.4629819140345405e-15 2.7789831754824146
0.7199999999992613 3.5678092713067e-15 2.657896244766647
0.7299999999992878 3.3776314404207068e-15 2.534371347254132
0.7399999999993142 3.33256635116218e-15 2.4088178665502458
0.7499999999993405 3.345788176365765e-15 2.281657870715977
0.759999999999367 2.98217243132844e-15 2.1533254841446587
0.7699999999993933 2.2244762421739655e-15 2.02426625140712
0.7799999999994197 2.532358151474533e-15 1.89493649523778
0.789999999999446 2.6552331275159e-15 1.7658026708914407
0.7999999999994724 2.3975019493772334e-15 1.637340719154353
0.8099999999994988 2.2084681171704314e-15 1.5100354203439739
0.8199999999995252 2.366275435574965e-15 1.38437975167926
0.8299999999995517 1.9776293193866858e-15 1.2608742504475796
0.839999999999578 1.8972502182377042e-15 1.1400263854353785
0.8499999999996044 1.6991250689725897e-15 1.0223499391275945
0.8599999999996307 1.4963290746459781e-15 0.9083644032155186
0.869999999999657 1.436569575399405e-15 0.7985943899843709
0.8799999999996835 1.2813574278424968e-15 0.6935690621805397
0.8899999999997098 1.0195214602996273e-15 0.5938215839839897
0.8999999999997362 8.114397612537551e-16 0.49988859573418293
0.9099999999997626 8.16770172989136e-16 0.4123097150779288
0.9199999999997889 5.806459496142426e-16 0.33162706722493684
0.9299999999998153 4.957898385834522e-16 0.2583848470118408
0.9399999999998417 3.613071023420228e-16 0.19312891548800265
0.9499999999998682 2.655703401185371e-16 0.13640643374679204
0.9599999999998945 1.6099495817746583e-16 0.08876553673443509
0.9699999999999208 9.209757763443298e-17 0.05075504977504177
0.9799999999999472 4.8123399976029103e-17 0.022924250555346103
0.9899999999999736 1.1502035933882412e-17 0.005822679316179085

CELLS 100 300
2 0 2
2 2 3
2 3 4
2 4 5
2 5 6
2 6 7
2 7 8
2 8 9
2 9 10
2 10 11
2 11 12
2 12 13
2 13 14
2 14 15
2 15 16
2 16 17
2 17 18
2 18 19
2 19 20
2 20 21
2 21 22
2 22 23
2 23 24
2 24 25
2 25 26
2 26 27
2 27 28
2 28 29
2 29 30
2 30 31
2 31 32
2 32 33
2 33 34
2 34 35
2 35 36
2 36 37
2 37 38
2 38 39
2 39 40
2 40 41
2 41 42
2 42 43
2 43 44
2 44 45
2 45 46
2 46 47
2 47 48
2 48 49
2 49 50
2 50 51
2 51 52
2 52 53
2 53 54
2 54 55
2 55 56
2 56 57
2 57 58
2 58 59
2 59 60
2 60 61
2 61 62
2 62 63
2 63 64
2 64 65
2 65 66
2 66 67
2 67 68
2 68 69
2 69 70
2 70 71
2 71 72
2 72 73
2 73 74
2 74 75
2 75 76
2 76 77
2 77 78
2 78 79
2 79 80
2 80 81
2 81 82
2 82 83
2 83 84
2 84 85
2 85 86
2 86 87
2 87 88
2 88 89
2 89 90
2 90 91
2 91 92
2 92 93
2 93 94
2 94 95
2 95 96
2 96 97
2 97 98
2 98 99
2 99 100
2 100 1

CELL_TYPES 100
3
3
3
3
3
3
3
3
3
3
3
3
3
3
3
3
3
3
3
3
3
3
3
3
3
3
3
3
3
3
3
3
3
3
3
3
3
3
3
3
3
3
3
3
3
3
3
3
3
3
3
3
3
3
3
3
3
3
3
3
3
3
3
3
3
3
3
3
3
3
3
3
3
3
3
3
3
3
3
3
3
3
3
3
3
3
3
3
3
3
3
3
3
3
3
3
3
3
3
3

POINT_DATA 101
SCALARS DISPL float 1
LOOKUP_TABLE default
0.0
0.0
0.0003515844581174384
0.0013842098752206826
0.0030646864964856725
0.005359832036345838
0.00823648006275103
0.011661491458167847
0.015601768791394096
0.020024273434315117
0.024896045257946586
0.030184224742400498
0.03585607733580124
0.04187901989769255
0.04822064906309868
0.05484877136417258
0.06173143494724591
0.06883696272415292
0.07613398679793251
0.08359148400436954
0.09117881241238036
0.09886574862798582
0.10662252574852522
0.11441987181585148
0.12222904861953336
0.13002189070358114
0.13777084443287071
0.14544900697830837
0.153030165082848
0.16048883347373544
0.16780029278978592
0.17494062689616344
0.1818867594629535
0.1886164896878459
0.19510852704744525
0.2013425249661082
0.20729911329576414
0.21295992950489973
0.2183076484797697
0.22332601084594425
0.2279998497234965
0.23231511583445766
0.2362589008866476
0.23981945916356837
0.2429862272557708
0.2457498418749094
0.24810215569762997
0.25003625119242945
0.2515464523887195
0.2526283345534738
0.253278731747059
0.25349574223610444
0.2532787317475673
0.2526283345544812
0.25154645239021206
0.25003625119438994
0.24810215570003746
0.24574984187774024
0.2429862272589979
0.2398194591671616
0.2362589008905746
0.23231511583868536
0.22799984972799053
0.22332601085067094
0.21830764848469497
0.21295992950999035
0.20729911330098624
0.20134252497142827
0.1951085270528307
0.18861648969326372
0.18188675946837152
0.1749406269015512
0.16780029279511435
0.16048883347897783
0.15303016508797962
0.14544900698330684
0.13777084443771614
0.13002189070825543
0.12222904862402349
0.11441987182014857
0.10662252575262261
0.09886574863187837
0.09117881241606524
0.08359148400784462
0.07613398680119611
0.06883696272720487
0.061731434950086574
0.05484877136680163
0.04822064906551686
0.041879019899904356
0.03585607733781064
0.030184224744208153
0.02489604525955304
0.020024273435721492
0.015601768792602059
0.011661491459178793
0.008236480063567017
0.00535983203697087
0.0030646864969249635
0.0013842098754800398
0.0003515844582028811

