# vtk DataFile Version 2.0
mesh vtk view
ASCII
DATASET UNSTRUCTURED_GRID
POINTS 101 double
0.0 0.0 0.0
1.0 -0.43665005655217454 0.0
0.009999999999981052 0.0025428434494248683 0.0
0.01999999999996226 0.009784439897926012 0.0
0.02999999999994291 0.021144843518854886 0.0
0.03999999999992165 0.03604563904647873 0.0
0.04999999999989939 0.053911588265472925 0.0
0.05999999999987805 0.07417279408646615 0.0
0.06999999999986013 0.09626729817622182 0.0
0.07999999999984476 0.119644028902365 0.0
0.08999999999982944 0.14376601752148574 0.0
0.09999999999981413 0.1681138021374007 0.0
0.1099999999997988 0.1921889410222042 0.0
0.1199999999997825 0.21551755945467757 0.0
0.1299999999997603 0.23765385730387037 0.0
0.1399999999997321 0.2581835081756947 0.0
0.1499999999997028 0.2767268850415345 0.0
0.1599999999996737 0.29294205186426325 0.0
0.1699999999996445 0.30652746580343504 0.0
0.1799999999996153 0.3172243400839121 0.0
0.1899999999995861 0.3248186235079621 0.0
0.1999999999995569 0.3291425588314581 0.0
0.2099999999995277 0.3300757887539607 0.0
0.2199999999994985 0.32754598502783516 0.0
0.2299999999994693 0.32152898310898564 0.0
0.2399999999994402 0.31204841177988524 0.0
0.2499999999994109 0.2991748142036889 0.0
0.2599999999993817 0.28302426384227247 0.0
0.2699999999993525 0.2637564855153419 0.0
0.2799999999993234 0.241572498522018 0.0
0.2899999999992942 0.21671180511493907 0.0
0.299999999999265 0.18944915364159176 0.0
0.3099999999992358 0.16009091128306488 0.0
0.3199999999992066 0.128971086462312 0.0
0.3299999999991775 0.09644704560771931 0.0
0.3399999999991483 0.06289497299044798 0.0
0.349999999999119 0.028705125761918172 0.0
0.3599999999990898 -0.005723060935776638 0.0
0.3699999999990606 -0.039985961861067704 0.0
0.3799999999990315 -0.07368078430102497 0.0
0.3899999999990023 -0.10641056655926907 0.0
0.3999999999989731 -0.13778909354843497 0.0
0.4099999999989439 -0.1674456715818509 0.0
0.4199999999989147 -0.19502970602675987 0.0
0.4299999999988856 -0.22021502774534538 0.0
0.4399999999988564 -0.24270391718152529 0.0
0.4499999999988272 -0.26223077851440024 0.0
0.4599999999987979 -0.2785654204493061 0.0
0.4699999999987687 -0.29151590490410173 0.0
0.4799999999987396 -0.3009309300120227 0.0
0.4899999999987104 -0.3067017194429026 0.0
0.4999999999986921 -0.30876339597275904 0.0
0.5099999999987076 -0.3070958234351572 0.0
0.5199999999987339 -0.30172390759156753 0.0
0.5299999999987604 -0.2927173529845165 0.0
0.5399999999987867 -0.2801898794082084 0.0
0.549999999998813 -0.26429790816654714 0.0
0.5599999999988394 -0.24523873470934338 0.0
0.5699999999988659 -0.22324821046639995 0.0
0.5799999999988923 -0.19859796266241644 0.0
0.5899999999989186 -0.1715921865200149 0.0
0.5999999999989449 -0.14256404947720774 0.0
0.6099999999989714 -0.11187175179679638 0.0
0.6199999999989977 -0.07989429217159161 0.0
0.6299999999990241 -0.04702699058149754 0.0
0.6399999999990504 -0.013676823692642667 0.0
0.6499999999990768 0.0197423695301254 0.0
0.6599999999991032 0.052814752625261224 0.0
0.6699999999991295 0.08512736647771423 0.0
0.679999999999156 0.11627495353806787 0.0
0.6899999999991824 0.1458646711716659 0.0
0.6999999999992087 0.17352063501507828 0.0
0.7099999999992351 0.19888823502782382 0.0
0.7199999999992615 0.22163816940031858 0.0
0.7299999999992879 0.24147014458206262 0.0
0.7399999999993142 0.2581161933852781 0.0
0.7499999999993405 0.27134356735005327 0.0
0.759999999999367 0.28095716427206047 0.0
0.7699999999993933 0.28680145693048675 0.0
0.7799999999994197 0.28876189454448237 0.0
0.789999999999446 0.28676575425852247 0.0
0.7999999999994724 0.2807824259332417 0.0
0.8099999999994988 0.2708231196184309 0.0
0.8199999999995252 0.25693999122686856 0.0
0.8299999999995517 0.23922468802622202 0.0
0.839999999999578 0.21780632153734494 0.0
0.8499999999996044 0.19284888118598562 0.0
0.8599999999996307 0.16454810751739235 0.0
0.869999999999657 0.13312784886839793 0.0
0.8799999999996835 0.09883593002026604 0.0
0.8899999999997098 0.06193956545207166 0.0
0.8999999999997362 0.022720353308115702 0.0
0.9099999999997626 -0.018531110983054024 0.0
0.9199999999997889 -0.06152096040738931 0.0
0.9299999999998153 -0.10595807904419316 0.0
0.9399999999998417 -0.15156037891641957 0.0
0.9499999999998682 -0.19806128861216646 0.0
0.9599999999998945 -0.24521641260188484 0.0
0.9699999999999208 -0.2928103224480605 0.0
0.9799999999999472 -0.3406634443488714 0.0
0.9899999999999736 -0.38863901169385373 0.0

CELLS 100 300
2 0 2
2 2 3
2 3 4
2 4 5
2 5 6
2 6 7
2 7 8
2 8 9
2 9 10
2 10 11
2 11 12
2 12 13
2 13 14
2 14 15
2 15 16
2 16 17
2 17 18
2 18 19
2 19 20
2 20 21
2 21 22
2 22 23
2 23 24
2 24 25
2 25 26
2 26 27
2 27 28
2 28 29
2 29 30
2 30 31
2 31 32
2 32 33
2 33 34
2 34 35
2 35 36
2 36 37
2 37 38
2 38 39
2 39 40
2 40 41
2 41 42
2 42 43
2 43 44
2 44 45
2 45 46
2 46 47
2 47 48
2 48 49
2 49 50
2 50 51
2 51 52
2 52 53
2 53 54
2 54 55
2 55 56
2 56 57
2 57 58
2 58 59
2 59 60
2 60 61
2 61 62
2 62 63
2 63 64
2 64 65
2 65 66
2 66 67
2 67 68
2 68 69
2 69 70
2 70 71
2 71 72
2 72 73
2 73 74
2 74 75
2 75 76
2 76 77
2 77 78
2 78 79
2 79 80
2 80 81
2 81 82
2 82 83
2 83 84
2 84 85
2 85 86
2 86 87
2 87 88
2 88 89
2 89 90
2 90 91
2 91 92
2 92 93
2 93 94
2 94 95
2 95 96
2 96 97
2 97 98
2 98 99
2 99 100
2 100 1

CELL_TYPES 100
3
3
3
3
3
3
3
3
3
3
3
3
3
3
3
3
3
3
3
3
3
3
3
3
3
3
3
3
3
3
3
3
3
3
3
3
3
3
3
3
3
3
3
3
3
3
3
3
3
3
3
3
3
3
3
3
3
3
3
3
3
3
3
3
3
3
3
3
3
3
3
3
3
3
3
3
3
3
3
3
3
3
3
3
3
3
3
3
3
3
3
3
3
3
3
3
3
3
3
3

POINT_DATA 101
SCALARS MODE4_2.4281_Hz float 1
LOOKUP_TABLE default
0.0
-0.25471253298876845
0.0014833253454978397
0.00570758994045684
0.012334492052665348
0.021026622777112588
0.03144842648819254
0.04326746321710525
0.056155923936129386
0.06979235019304625
0.08386351022086667
0.0980663845801504
0.11211021559628578
0.1257185763485619
0.13863141676059104
0.1506070464358219
0.16142401627422842
0.1708828635874869
0.1788076883853371
0.1850475317156154
0.18947753037964454
0.19199982598501722
0.19254421010647707
0.19106849126623715
0.1875585734802416
0.18202824020493305
0.17451864161881853
0.16509748724132559
0.15385794988394944
0.1409172908045105
0.1264152196503811
0.11051200629092851
0.09338636491512117
0.07523313376968199
0.056260776604502925
0.036688734244427985
0.016744656694452267
-0.0033384522125363717
-0.023325144418956157
-0.04298045750893123
-0.062072830492906954
-0.08037697123658706
-0.09767664175607968
-0.11376732851560992
-0.1284587661847848
-0.1415772850225564
-0.15296795413340014
-0.1624964952620952
-0.17005094452739267
-0.17554304250701322
-0.17890933634169315
-0.18011198098410944
-0.179139230337175
-0.1760056127617477
-0.17075178924096795
-0.16344409632145487
-0.15417377976381916
-0.1430559285804503
-0.13022812277206663
-0.11584881155307625
-0.10009544213667536
-0.08316236219503785
-0.06525852188146455
-0.04660500376676177
-0.027432411172540232
-0.007978147154041555
0.011516382225906483
0.030808605698069046
0.04965763044533329
0.06782705623053958
0.08508772485013844
0.10122037042546232
0.11601813709956389
0.12928893215018583
0.14085758433953652
0.15056777947474553
0.1582837476208644
0.16389167915870193
0.16730084987611726
0.16844443848428137
0.1672800233174714
0.16378974846105765
0.15798015311075136
0.14988166154900665
0.13954773468196283
0.1270536875634512
0.11249518069182493
0.0959863960518122
0.07765791183989879
0.05765429251182185
0.03613141318037513
0.013253539429734158
-0.010809814740114847
-0.035887226904310426
-0.06180887944244601
-0.08841022103457807
-0.11553575169043043
-0.14304290735109948
-0.17080602142803528
-0.19872034253684165
-0.226706090154748

