# vtk DataFile Version 2.0
mesh vtk view
ASCII
DATASET UNSTRUCTURED_GRID
POINTS 101 double
0.0 0.0 0.0
1.0 0.0 0.0
0.009999999999980308 0.003959421935167867 9.530364340036377e-14
0.019999999999960626 0.015588490377954138 2.7105928293931637e-13
0.029999999999940328 0.03451343384714714 4.1823570683544964e-13
0.03999999999991812 0.06036056497900137 5.399710547347809e-13
0.04999999999989495 0.09275637494656164 6.400850626373362e-13
0.05999999999987253 0.13132766252946387 7.234383524595129e-13
0.06999999999985339 0.17570169596431356 7.932969638259545e-13
0.07999999999983681 0.22550640570764385 8.516508129648053e-13
0.08999999999982039 0.28037060624590293 9.028520571521197e-13
0.09999999999980408 0.3399242450902019 9.484389549365333e-13
0.10999999999978764 0.4037986770979587 9.873829683364136e-13
0.11999999999977036 0.4716269622693622 1.0260066316930912e-12
0.12999999999974707 0.5430441851735591 1.0532283002070621e-12
0.13999999999971793 0.6176877941681881 1.0509147611087274e-12
0.14999999999968772 0.6951979585857591 1.0179814270646116e-12
0.15999999999965786 0.7752179420723478 9.524545041784845e-13
0.16999999999962792 0.8573944902778937 8.609785456296864e-13
0.17999999999959812 0.9413782311126735 7.375562354339387e-13
0.18999999999956826 1.026824085801954 5.928906929371047e-13
0.19999999999953827 1.113391688990349 4.4166301322898066e-13
0.20999999999950847 1.2007458161689981 2.85740188717927e-13
0.21999999999947875 1.288556816722062 1.6611782404366747e-13
0.22999999999944915 1.376501050914881 1.1480796637910865e-13
0.2399999999994197 1.464261329174212 1.0288800901152176e-13
0.24999999999939002 1.551527352040684 9.200154689866204e-14
0.2599999999993605 1.637996149206164 8.13039321505249e-14
0.26999999999933094 1.7233725160832076 6.935258900326261e-14
0.27999999999930153 1.8073694463903696 5.721299082174436e-14
0.2899999999992719 1.8897085592760192 4.4615714021039386e-14
0.2999999999992422 1.9701205195444145 3.191023717701009e-14
0.3099999999992125 2.048345449590868 1.882584753816305e-14
0.31999999999918316 2.124133331698182 4.728631596494549e-15
0.329999999999154 2.1972443993938193 -8.18827167738581e-15
0.3399999999991248 2.267449516616655 -2.119093166627708e-14
0.34999999999909553 2.3345305434934183 -3.3045410784179194e-14
0.35999999999906646 2.3982806875782012 -4.4701156451179467e-14
0.36999999999903727 2.4585048394633153 -5.5243072287609916e-14
0.3799999999990084 2.5150198917267437 -6.556846522184379e-14
0.3899999999989794 2.5676550402397287 -7.410632225941358e-14
0.3999999999989505 2.6162520669182205 -8.224273428673693e-14
0.4099999999989214 2.6606656030634364 -8.892016955637201e-14
0.41999999999889237 2.7007633724997455 -9.552145217011992e-14
0.4299999999988634 2.7364264137824517 -1.0006888833406551e-13
0.4399999999988343 2.7675492808134874 -1.0386203840281246e-13
0.44999999999880524 2.7940402212697695 -1.0794856586423708e-13
0.4599999999987761 2.8158213323164833 -1.0959128083516569e-13
0.46999999999874714 2.8328286931461903 -1.1232938228267073e-13
0.47999999999871823 2.8450124739538634 -1.1231619590234216e-13
0.4899999999986892 2.852337021028032 -1.1252992195897722e-13
0.4999999999986712 2.8547809177086374 -1.1179500543016908e-13
0.5099999999986871 2.8523370210331827 -1.1054547712966448e-13
0.5199999999987137 2.845012473964068 -1.0794503374386356e-13
0.5299999999987406 2.8328286931613116 -1.0460103100575109e-13
0.5399999999987672 2.8158213323363537 -1.0005132705377956e-13
0.5499999999987941 2.794040221294187 -9.483868197432961e-14
0.559999999998821 2.7675492808422226 -8.999132498906502e-14
0.569999999998848 2.73642641381524 -8.302232432252302e-14
0.5799999999988749 2.70076337253628 -7.795452844632891e-14
0.5899999999989017 2.66066560310338 -7.172338348409825e-14
0.5999999999989285 2.6162520669612244 -6.623872591193508e-14
0.6099999999989554 2.567655040285426 -6.150679944253125e-14
0.619999999998982 2.515019891774772 -5.76732231087763e-14
0.6299999999990089 2.458504839513309 -5.273356288525168e-14
0.6399999999990358 2.3982806876298035 -4.814958059434367e-14
0.6499999999990629 2.3345305435462835 -4.160722475620572e-14
0.6599999999990901 2.2674495166704323 -3.695665811977386e-14
0.6699999999991172 2.197244399448172 -3.1065562287043535e-14
0.6799999999991446 2.124133331752762 -2.5808202357752644e-14
0.689999999999172 2.0483454496453324 -2.0414032270574076e-14
0.6999999999991995 1.9701205195984275 -1.6681402572786853e-14
0.7099999999992269 1.8897085593292624 -1.1610347831154335e-14
0.7199999999992545 1.80736944644255 -6.684550230574667e-15
0.7299999999992819 1.7233725161340518 -1.9437429255287965e-15
0.7399999999993091 1.6379961492554223 2.856376672236425e-15
0.7499999999993362 1.5515273520881263 7.491731506164182e-15
0.7599999999993633 1.4642613292196345 1.1800090364965761e-14
0.7699999999993905 1.3765010509581077 1.6221428092968404e-14
0.7799999999994177 1.2885568167629586 2.0636834055163765e-14
0.7899999999994449 1.2007458162074482 2.2879455084944113e-14
0.799999999999472 1.1133916890262239 2.621870207874737e-14
0.8099999999994991 1.0268240858351574 2.891165089599361e-14
0.819999999999526 0.9413782311431393 3.0569604418395957e-14
0.8299999999995528 0.8573944903055741 3.1988716175106934e-14
0.8399999999995792 0.7752179420972434 3.2334746318429223e-14
0.8499999999996057 0.6951979586079033 3.2219975899753864e-14
0.8599999999996323 0.6176877941876315 3.198251929930004e-14
0.8699999999996588 0.5430441851903798 3.057687656060588e-14
0.8799999999996854 0.47162696228369394 2.906518574440349e-14
0.8899999999997118 0.40379867710995115 2.686787343901464e-14
0.8999999999997383 0.33992424509998764 2.4282812753053853e-14
0.9099999999997649 0.28037060625363536 2.1270446182638247e-14
0.9199999999997913 0.2255064057134993 1.8399205673113273e-14
0.9299999999998178 0.1757016959684934 1.5078462048324218e-14
0.9399999999998442 0.13132766253218606 1.1812738519457514e-14
0.9499999999998704 0.0927563749480715 8.726743772461554e-15
0.9599999999998965 0.06036056497958671 5.980612543709929e-15
0.9699999999999226 0.03451343384712958 3.584562434202672e-15
0.9799999999999486 0.015588490377682587 1.6886353794508668e-15
0.9899999999999743 0.0039594219350141575 4.443346221968948e-16

CELLS 100 300
2 0 2
2 2 3
2 3 4
2 4 5
2 5 6
2 6 7
2 7 8
2 8 9
2 9 10
2 10 11
2 11 12
2 12 13
2 13 14
2 14 15
2 15 16
2 16 17
2 17 18
2 18 19
2 19 20
2 20 21
2 21 22
2 22 23
2 23 24
2 24 25
2 25 26
2 26 27
2 27 28
2 28 29
2 29 30
2 30 31
2 31 32
2 32 33
2 33 34
2 34 35
2 35 36
2 36 37
2 37 38
2 38 39
2 39 40
2 40 41
2 41 42
2 42 43
2 43 44
2 44 45
2 45 46
2 46 47
2 47 48
2 48 49
2 49 50
2 50 51
2 51 52
2 52 53
2 53 54
2 54 55
2 55 56
2 56 57
2 57 58
2 58 59
2 59 60
2 60 61
2 61 62
2 62 63
2 63 64
2 64 65
2 65 66
2 66 67
2 67 68
2 68 69
2 69 70
2 70 71
2 71 72
2 72 73
2 73 74
2 74 75
2 75 76
2 76 77
2 77 78
2 78 79
2 79 80
2 80 81
2 81 82
2 82 83
2 83 84
2 84 85
2 85 86
2 86 87
2 87 88
2 88 89
2 89 90
2 90 91
2 91 92
2 92 93
2 93 94
2 94 95
2 95 96
2 96 97
2 97 98
2 98 99
2 99 100
2 100 1

CELL_TYPES 100
3
3
3
3
3
3
3
3
3
3
3
3
3
3
3
3
3
3
3
3
3
3
3
3
3
3
3
3
3
3
3
3
3
3
3
3
3
3
3
3
3
3
3
3
3
3
3
3
3
3
3
3
3
3
3
3
3
3
3
3
3
3
3
3
3
3
3
3
3
3
3
3
3
3
3
3
3
3
3
3
3
3
3
3
3
3
3
3
3
3
3
3
3
3
3
3
3
3
3
3

POINT_DATA 101
SCALARS DISPL float 1
LOOKUP_TABLE default
0.0
0.0
0.0003515844582169249
0.0013842098755055742
0.003064686496929367
0.005359832036923327
0.008236480063438904
0.01166149145894428
0.015601768792238868
0.020024273435209582
0.02489604525887372
0.03018422474334474
0.035856077336748345
0.04187901989863015
0.04822064906401611
0.054848771365061035
0.061731434948097706
0.06883696272496163
0.07613398679869399
0.08359148400508222
0.09117881241304567
0.09886574862860695
0.1066225257491074
0.11441987181640047
0.12222904862005267
0.13002189070407402
0.13777084443333945
0.14544900697875293
0.15303016508326855
0.1604888334741321
0.16780029279015873
0.17494062689651257
0.1818867594632791
0.18861648968814798
0.19510852704772327
0.20134252496636132
0.2072991132959913
0.21295992950510012
0.21830764847994183
0.22332601084608764
0.22799984972361073
0.23231511583454278
0.23625890088670382
0.23981945916359637
0.24298622725577154
0.2457498418748839
0.24810215569757935
0.25003625119235434
0.25154645238862033
0.2526283345533505
0.25327873174691123
0.2534957422359316
0.2532787317473686
0.25262833455425665
0.25154645238996304
0.25003625119411876
0.2481021556997475
0.24574984187743554
0.24298622725868307
0.23981945916684053
0.2362589008902507
0.2323151158383614
0.22799984972766849
0.22332601085035242
0.21830764848438114
0.21295992950968226
0.20729911330068557
0.20134252497113658
0.1951085270525496
0.18861648969299455
0.18188675946811536
0.17494062690130877
0.16780029279488656
0.16048883347876555
0.15303016508778336
0.1454490069831269
0.1377708444375522
0.1300218907081074
0.12222904862389107
0.11441987182003197
0.10662252575252165
0.09886574863179252
0.09117881241599404
0.0835914840077875
0.07613398680115192
0.06883696272717228
0.06173143495006405
0.05484877136678755
0.048220649065509734
0.04187901989990277
0.035856077337813236
0.030184224744213683
0.024896045259560334
0.020024273435729528
0.015601768792610023
0.011661491459186
0.008236480063572976
0.005359832036975303
0.0030646864969278076
0.0013842098754814614
0.000351584458203276

