# vtk DataFile Version 2.0
mesh vtk view
ASCII
DATASET UNSTRUCTURED_GRID
POINTS 101 double
0.0 0.0 0.0
1.0 0.0 0.0
0.009999999999980134 0.004891050625795601 1.1772803008280233e-13
0.01999999999996024 0.01925637046688453 3.348379377485674e-13
0.02999999999993972 0.04263424181118177 5.166441084437909e-13
0.039999999999917296 0.07456305085641347 6.670230676135531e-13
0.04999999999989391 0.11458140434575263 7.906933126696508e-13
0.05999999999987123 0.16222828900698483 8.936591412735161e-13
0.06999999999985179 0.2170432714853286 9.799550729614733e-13
0.07999999999983494 0.27856673646238367 1.0520392395447598e-12
0.08999999999981825 0.34634016065670375 1.1152878353055599e-12
0.09999999999980172 0.4199064204055436 1.1716010619804237e-12
0.10999999999978502 0.4988101305327726 1.2197083726508641e-12
0.1199999999997675 0.5825980122150947 1.2674199567973484e-12
0.12999999999974396 0.670819287567338 1.3010467237851945e-12
0.1399999999997146 0.7630260986783501 1.2981888225460755e-12
0.14999999999968416 0.8587739488412319 1.2575064687268736e-12
0.1599999999996541 0.9576221637364299 1.1765614463381282e-12
0.16999999999962404 1.0591343703432807 1.0635617328366717e-12
0.17999999999959407 1.1628789913744793 9.11098879065454e-13
0.18999999999956407 1.2684297530494728 7.323943853928942e-13
0.19999999999953388 1.375366204046902 5.455837222240351e-13
0.20999999999950394 1.4832742435028803 3.5297317429861574e-13
0.2199999999994741 1.591746655950783 2.0520437087747163e-13
0.2299999999994444 1.7003836511301476 1.4182160552713423e-13
0.23999999999941488 1.808793406626968 1.2709695230835043e-13
0.2499999999993851 1.9165926113443748 1.1364896969834725e-13
0.2599999999993555 2.023407007842909 1.0043426912711902e-13
0.2699999999993259 2.1288719316321982 8.567084523932441e-14
0.27999999999929637 2.2326328455410454 7.0674871015096e-14
0.2899999999992667 2.334345867340965 5.511352908481337e-14
0.2999999999992369 2.433678288848983 3.9418528277483064e-14
0.309999999999207 2.53030908478872 2.3255458723613185e-14
0.31999999999917766 2.623929409744813 5.841250795669738e-15
0.3299999999991485 2.7142430816041303 -1.0114923836770707e-14
0.33999999999911923 2.800967049938221 -2.6177033234812867e-14
0.34999999999909 2.8838318478448115 -4.0820801556927245e-14
0.35999999999906096 2.962582025831896 -5.521907561616288e-14
0.3699999999990318 3.036976566395861 -6.82414422376358e-14
0.37999999999900297 3.10678927801539 -8.099633939168941e-14
0.389999999998974 3.1718091673549598 -9.154310396751091e-14
0.39999999999894514 3.231840788546038 -1.0159396588361624e-13
0.4099999999989161 3.286704568490128 -1.0984256239316546e-13
0.41999999999888715 3.3362371072055685 -1.1799708797485404e-13
0.4299999999988582 3.3802914523195 -1.2361450911855154e-13
0.4399999999988291 3.4187373468872497 -1.283001650858272e-13
0.4499999999988001 3.451461449803834 -1.333482284205282e-13
0.459999999998771 3.4783675281556565 -1.3537746456108705e-13
0.4699999999987421 3.499376620945295 -1.3875982517271094e-13
0.4799999999987132 3.5144271737077144 -1.38743536114658e-13
0.48999999999868427 3.523475143622864 -1.3900755065520717e-13
0.4999999999986663 3.5264940748165525 -1.3809971259020888e-13
0.5099999999986823 3.5234751436292266 -1.3655617763076205e-13
0.5199999999987089 3.5144271737203203 -1.3334386521300796e-13
0.5299999999987359 3.499376620963974 -1.2921303830122196e-13
0.5399999999987627 3.4783675281802022 -1.2359281577231597e-13
0.5499999999987896 3.4514614498339964 -1.1715366596828955e-13
0.5599999999988167 3.4187373469227467 -1.1116575439825682e-13
0.5699999999988438 3.3802914523600034 -1.0255698886899904e-13
0.5799999999988709 3.3362371072506996 -9.629677043370043e-14
0.5899999999988977 3.2867045685394705 -8.859947371565081e-14
0.5999999999989246 3.2318407885991602 -8.182430847944924e-14
0.6099999999989516 3.1718091674114093 -7.597898754665627e-14
0.6199999999989784 3.1067892780747193 -7.124339325201779e-14
0.6299999999990052 3.0369765664576183 -6.514146003472268e-14
0.6399999999990323 2.9625820258956406 -5.947889367536573e-14
0.6499999999990596 2.8838318479101157 -5.1397159992960017e-14
0.659999999999087 2.800967050004652 -4.5652342383250073e-14
0.6699999999991143 2.7142430816712717 -3.83751063545832e-14
0.679999999999142 2.623929409812236 -3.18807205595768e-14
0.6899999999991696 2.5303090848559995 -2.521733398129739e-14
0.6999999999991973 2.433678288915705 -2.060643847226612e-14
0.709999999999225 2.3343458674067366 -1.434219437966124e-14
0.7199999999992528 2.2326328456055036 -8.25738557894518e-15
0.7299999999992806 2.1288719316950058 -2.401094202123808e-15
0.739999999999308 2.0234070079037574 3.5284653009979374e-15
0.7499999999993351 1.91659261140298 9.254491860555756e-15
0.7599999999993625 1.8087934066830782 1.4576582215545946e-14
0.7699999999993898 1.7003836511835453 2.0038234703078623e-14
0.7799999999994173 1.5917466560013023 2.5492559715202306e-14
0.7899999999994447 1.4832742435503776 2.8262856281401558e-14
0.7999999999994719 1.375366204091218 3.238780845021735e-14
0.8099999999994991 1.2684297530904889 3.5714392283286235e-14
0.8199999999995262 1.1628789914121136 3.776245251684208e-14
0.829999999999553 1.0591343703774743 3.951547292219093e-14
0.8399999999995795 0.9576221637671832 3.994292192276552e-14
0.8499999999996061 0.8587739488685867 3.980114669969596e-14
0.8599999999996327 0.7630260987023685 3.9507817957958884e-14
0.8699999999996593 0.6708192875881164 3.7771435751336685e-14
0.8799999999996858 0.5825980122327985 3.5904052978380793e-14
0.8899999999997124 0.4988101305475868 3.3189726012900445e-14
0.8999999999997389 0.4199064204176319 2.9996415753772416e-14
0.9099999999997653 0.34634016066625556 2.627525704914137e-14
0.9199999999997919 0.2785667364696168 2.2728430537375226e-14
0.9299999999998183 0.21704327149049188 1.8626335471459333e-14
0.9399999999998447 0.1622282890103475 1.45922064063887e-14
0.949999999999871 0.11458140434761777 1.0780095248334864e-14
0.9599999999998969 0.07456305085713653 7.38781549517109e-15
0.969999999999923 0.04263424181116007 4.427988889309183e-15
0.9799999999999489 0.019256370466549082 2.0859613510863654e-15
0.9899999999999746 0.004891050625605725 5.488839450667526e-16

CELLS 100 300
2 0 2
2 2 3
2 3 4
2 4 5
2 5 6
2 6 7
2 7 8
2 8 9
2 9 10
2 10 11
2 11 12
2 12 13
2 13 14
2 14 15
2 15 16
2 16 17
2 17 18
2 18 19
2 19 20
2 20 21
2 21 22
2 22 23
2 23 24
2 24 25
2 25 26
2 26 27
2 27 28
2 28 29
2 29 30
2 30 31
2 31 32
2 32 33
2 33 34
2 34 35
2 35 36
2 36 37
2 37 38
2 38 39
2 39 40
2 40 41
2 41 42
2 42 43
2 43 44
2 44 45
2 45 46
2 46 47
2 47 48
2 48 49
2 49 50
2 50 51
2 51 52
2 52 53
2 53 54
2 54 55
2 55 56
2 56 57
2 57 58
2 58 59
2 59 60
2 60 61
2 61 62
2 62 63
2 63 64
2 64 65
2 65 66
2 66 67
2 67 68
2 68 69
2 69 70
2 70 71
2 71 72
2 72 73
2 73 74
2 74 75
2 75 76
2 76 77
2 77 78
2 78 79
2 79 80
2 80 81
2 81 82
2 82 83
2 83 84
2 84 85
2 85 86
2 86 87
2 87 88
2 88 89
2 89 90
2 90 91
2 91 92
2 92 93
2 93 94
2 94 95
2 95 96
2 96 97
2 97 98
2 98 99
2 99 100
2 100 1

CELL_TYPES 100
3
3
3
3
3
3
3
3
3
3
3
3
3
3
3
3
3
3
3
3
3
3
3
3
3
3
3
3
3
3
3
3
3
3
3
3
3
3
3
3
3
3
3
3
3
3
3
3
3
3
3
3
3
3
3
3
3
3
3
3
3
3
3
3
3
3
3
3
3
3
3
3
3
3
3
3
3
3
3
3
3
3
3
3
3
3
3
3
3
3
3
3
3
3
3
3
3
3
3
3

POINT_DATA 101
SCALARS DISPL float 1
LOOKUP_TABLE default
0.0
0.0
0.0003515844582169249
0.0013842098755055742
0.003064686496929367
0.005359832036923327
0.008236480063438904
0.01166149145894428
0.015601768792238868
0.020024273435209582
0.02489604525887372
0.03018422474334474
0.035856077336748345
0.04187901989863015
0.04822064906401611
0.054848771365061035
0.061731434948097706
0.06883696272496163
0.07613398679869399
0.08359148400508222
0.09117881241304567
0.09886574862860695
0.1066225257491074
0.11441987181640047
0.12222904862005267
0.13002189070407402
0.13777084443333945
0.14544900697875293
0.15303016508326855
0.1604888334741321
0.16780029279015873
0.17494062689651257
0.1818867594632791
0.18861648968814798
0.19510852704772327
0.20134252496636132
0.2072991132959913
0.21295992950510012
0.21830764847994183
0.22332601084608764
0.22799984972361073
0.23231511583454278
0.23625890088670382
0.23981945916359637
0.24298622725577154
0.2457498418748839
0.24810215569757935
0.25003625119235434
0.25154645238862033
0.2526283345533505
0.25327873174691123
0.2534957422359316
0.2532787317473686
0.25262833455425665
0.25154645238996304
0.25003625119411876
0.2481021556997475
0.24574984187743554
0.24298622725868307
0.23981945916684053
0.2362589008902507
0.2323151158383614
0.22799984972766849
0.22332601085035242
0.21830764848438114
0.21295992950968226
0.20729911330068557
0.20134252497113658
0.1951085270525496
0.18861648969299455
0.18188675946811536
0.17494062690130877
0.16780029279488656
0.16048883347876555
0.15303016508778336
0.1454490069831269
0.1377708444375522
0.1300218907081074
0.12222904862389107
0.11441987182003197
0.10662252575252165
0.09886574863179252
0.09117881241599404
0.0835914840077875
0.07613398680115192
0.06883696272717228
0.06173143495006405
0.05484877136678755
0.048220649065509734
0.04187901989990277
0.035856077337813236
0.030184224744213683
0.024896045259560334
0.020024273435729528
0.015601768792610023
0.011661491459186
0.008236480063572976
0.005359832036975303
0.0030646864969278076
0.0013842098754814614
0.000351584458203276

