# vtk DataFile Version 2.0
mesh vtk view
ASCII
DATASET UNSTRUCTURED_GRID
POINTS 101 double
0.0 0.0 0.0
1.0 0.0 0.0
0.00999999999998162 -0.0030277932445401338 -7.287925671792525e-14
0.01999999999996351 -0.011920610289023754 -2.072806281300655e-13
0.029999999999944883 -0.026392625883112523 -3.198273052271086e-13
0.03999999999992434 -0.0461580791015893 -4.12919041856009e-13
0.04999999999990278 -0.07093134554737068 -4.89476812605022e-13
0.059999999999882266 -0.10042703605194299 -5.5321756364551e-13
0.0699999999998653 -0.13436012044329865 -6.066388546904358e-13
0.07999999999985084 -0.17244607495290418 -6.512623863848512e-13
0.08999999999983636 -0.2144010518351023 -6.904162789986799e-13
0.09999999999982181 -0.25994206977486034 -7.252768478926433e-13
0.10999999999980734 -0.308787223663145 -7.550575640219635e-13
0.11999999999979179 -0.36065591232363 -7.845933065888346e-13
0.12999999999977044 -0.41526908277978064 -8.0540987662893e-13
0.1399999999997429 -0.47234948965802626 -8.0364069967138e-13
0.1499999999997143 -0.5316219683302864 -7.784563854023503e-13
0.15999999999968584 -0.5928137204082661 -7.283475620188412e-13
0.16999999999965718 -0.6556546102125071 -6.583953584227015e-13
0.17999999999962846 -0.7198774708508681 -5.640135918024238e-13
0.18999999999959977 -0.7852184185544355 -4.5338700048131545e-13
0.19999999999957113 -0.8514171739337965 -3.377423042339265e-13
0.2099999999995424 -0.9182173888351164 -2.1850720313723832e-13
0.21999999999951364 -0.9853669774933418 -1.2703127720986339e-13
0.2299999999994847 -1.052618450699615 -8.779432723108309e-14
0.23999999999945587 -1.1197292517214563 -7.867906571469313e-14
0.24999999999942685 -1.186462092736994 -7.035412409897686e-14
0.25999999999939793 -1.25258529056942 -6.217359517393082e-14
0.26999999999936897 -1.317873100534218 -5.303433276720083e-14
0.27999999999934017 -1.3821060472396947 -4.3751110628392756e-14
0.28999999999931125 -1.4450712512110737 -3.411789895726542e-14
0.29999999999928245 -1.5065627502398466 -2.4401946076537133e-14
0.3099999999992536 -1.566381814393017 -1.4396236352712925e-14
0.3199999999992245 -1.624337253651551 -3.616012397319362e-15
0.3299999999991955 -1.6802457171835092 6.261619518000914e-15
0.3399999999991663 -1.7339319832950892 1.62048300977413e-14
0.349999999999137 -1.7852292391420261 2.5270020011431152e-14
0.3599999999991077 -1.8339793493245071 3.418323728619607e-14
0.3699999999990784 -1.880033112530771 4.2244702337584067e-14
0.37999999999904915 -1.9232505054380984 5.0140591051998204e-14
0.38999999999901985 -1.963500913124499 5.666954055131628e-14
0.39999999999899044 -2.000663345290404 6.289150268985767e-14
0.40999999999896103 -2.034626637636746 6.799777671957862e-14
0.41999999999893173 -2.0652896377939234 7.304581636538583e-14
0.4299999999989026 -2.0925613752454044 7.652326754957952e-14
0.43999999999887335 -2.116361214739726 7.942391171979779e-14
0.44999999999884405 -2.136618992735707 8.254890330794602e-14
0.4599999999988146 -2.153275136477311 8.380509710924437e-14
0.46999999999878517 -2.166280765347087 8.589893939263058e-14
0.479999999998756 -2.1755977742000137 8.588885569002638e-14
0.4899999999987266 -2.181198898433202 8.60522932627473e-14
0.4999999999987081 -2.183067760600723 8.54902982701293e-14
0.5099999999987233 -2.1811988984371404 8.453477662856697e-14
0.5199999999987494 -2.175597774207817 8.254620227471921e-14
0.5299999999987755 -2.16628076535865 7.998902371028026e-14
0.5399999999988015 -2.153275136492506 7.650983833524321e-14
0.5499999999988274 -2.1366189927543786 7.252369798036971e-14
0.5599999999988535 -2.1163612147617004 6.881689557987326e-14
0.5699999999988795 -2.092561375270478 6.348765977604703e-14
0.5799999999989056 -2.0652896378218615 5.961228645895741e-14
0.5899999999989315 -2.0346266376672912 5.484729325254574e-14
0.5999999999989575 -2.0006633453232894 5.0653143344420956e-14
0.6099999999989836 -1.9635009131594436 4.703461133840626e-14
0.6199999999990097 -1.9232505054748261 4.410305296553482e-14
0.6299999999990358 -1.8800331125690015 4.03256657357807e-14
0.6399999999990617 -1.8339793493639678 3.682026751332164e-14
0.6499999999990874 -1.7852292391824525 3.181728951945144e-14
0.6599999999991132 -1.7339319833362132 2.826097385629766e-14
0.669999999999139 -1.6802457172250729 2.3756018219503884e-14
0.6799999999991646 -1.624337253693289 1.9735684155928497e-14
0.6899999999991903 -1.5663818144346662 1.5610730559850767e-14
0.6999999999992158 -1.5065627502811507 1.2756366673307596e-14
0.7099999999992415 -1.4450712512517891 8.878501282647434e-15
0.7199999999992668 -1.3821060472795974 5.111714882204158e-15
0.7299999999992924 -1.3178731005730988 1.486391648933786e-15
0.7399999999993181 -1.2525852906070878 -2.1842880434749136e-15
0.7499999999993439 -1.1864620927732734 -5.72897115177261e-15
0.7599999999993697 -1.1197292517561912 -9.023598514385585e-15
0.7699999999993954 -1.0526184507326708 -1.2404621482858193e-14
0.7799999999994213 -0.9853669775246157 -1.5781108395125236e-14
0.7899999999994469 -0.9182173888645194 -1.7496053888486678e-14
0.7999999999994726 -0.8514171739612302 -2.0049595707277403e-14
0.8099999999994986 -0.7852184185798264 -2.2108909508701e-14
0.8199999999995247 -0.7198774708741655 -2.3376756319949854e-14
0.8299999999995509 -0.6556546102336746 -2.4461959428022957e-14
0.839999999999577 -0.592813720427304 -2.472657071409294e-14
0.8499999999996033 -0.5316219683472203 -2.4638805099811784e-14
0.8599999999996295 -0.47234948967289475 -2.445722064064121e-14
0.8699999999996557 -0.4152690827926435 -2.338231736987509e-14
0.879999999999682 -0.36065591233458955 -2.2226318510426205e-14
0.8899999999997082 -0.30878722367231565 -2.0546020865128847e-14
0.8999999999997346 -0.2599420697823435 -1.8569209752335305e-14
0.9099999999997608 -0.21440105184101532 -1.6265635316135134e-14
0.919999999999787 -0.17244607495738185 -1.4069980808851329e-14
0.9299999999998134 -0.13436012044649498 -1.153058862518911e-14
0.9399999999998399 -0.10042703605402464 -9.033270632526337e-15
0.9499999999998665 -0.07093134554852529 -6.673392296588249e-15
0.9599999999998929 -0.046158079102036904 -4.57340959224877e-15
0.9699999999999195 -0.026392625883099093 -2.741135979096161e-15
0.9799999999999462 -0.0119206102888161 -1.291309407815369e-15
0.989999999999973 -0.0030277932444225915 -3.397852993270373e-16

CELLS 100 300
2 0 2
2 2 3
2 3 4
2 4 5
2 5 6
2 6 7
2 7 8
2 8 9
2 9 10
2 10 11
2 11 12
2 12 13
2 13 14
2 14 15
2 15 16
2 16 17
2 17 18
2 18 19
2 19 20
2 20 21
2 21 22
2 22 23
2 23 24
2 24 25
2 25 26
2 26 27
2 27 28
2 28 29
2 29 30
2 30 31
2 31 32
2 32 33
2 33 34
2 34 35
2 35 36
2 36 37
2 37 38
2 38 39
2 39 40
2 40 41
2 41 42
2 42 43
2 43 44
2 44 45
2 45 46
2 46 47
2 47 48
2 48 49
2 49 50
2 50 51
2 51 52
2 52 53
2 53 54
2 54 55
2 55 56
2 56 57
2 57 58
2 58 59
2 59 60
2 60 61
2 61 62
2 62 63
2 63 64
2 64 65
2 65 66
2 66 67
2 67 68
2 68 69
2 69 70
2 70 71
2 71 72
2 72 73
2 73 74
2 74 75
2 75 76
2 76 77
2 77 78
2 78 79
2 79 80
2 80 81
2 81 82
2 82 83
2 83 84
2 84 85
2 85 86
2 86 87
2 87 88
2 88 89
2 89 90
2 90 91
2 91 92
2 92 93
2 93 94
2 94 95
2 95 96
2 96 97
2 97 98
2 98 99
2 99 100
2 100 1

CELL_TYPES 100
3
3
3
3
3
3
3
3
3
3
3
3
3
3
3
3
3
3
3
3
3
3
3
3
3
3
3
3
3
3
3
3
3
3
3
3
3
3
3
3
3
3
3
3
3
3
3
3
3
3
3
3
3
3
3
3
3
3
3
3
3
3
3
3
3
3
3
3
3
3
3
3
3
3
3
3
3
3
3
3
3
3
3
3
3
3
3
3
3
3
3
3
3
3
3
3
3
3
3
3

POINT_DATA 101
SCALARS DISPL float 1
LOOKUP_TABLE default
0.0
0.0
0.0003515844582169249
0.0013842098755055742
0.003064686496929367
0.005359832036923327
0.008236480063438904
0.01166149145894428
0.015601768792238868
0.020024273435209582
0.02489604525887372
0.03018422474334474
0.035856077336748345
0.04187901989863015
0.04822064906401611
0.054848771365061035
0.061731434948097706
0.06883696272496163
0.07613398679869399
0.08359148400508222
0.09117881241304567
0.09886574862860695
0.1066225257491074
0.11441987181640047
0.12222904862005267
0.13002189070407402
0.13777084443333945
0.14544900697875293
0.15303016508326855
0.1604888334741321
0.16780029279015873
0.17494062689651257
0.1818867594632791
0.18861648968814798
0.19510852704772327
0.20134252496636132
0.2072991132959913
0.21295992950510012
0.21830764847994183
0.22332601084608764
0.22799984972361073
0.23231511583454278
0.23625890088670382
0.23981945916359637
0.24298622725577154
0.2457498418748839
0.24810215569757935
0.25003625119235434
0.25154645238862033
0.2526283345533505
0.25327873174691123
0.2534957422359316
0.2532787317473686
0.25262833455425665
0.25154645238996304
0.25003625119411876
0.2481021556997475
0.24574984187743554
0.24298622725868307
0.23981945916684053
0.2362589008902507
0.2323151158383614
0.22799984972766849
0.22332601085035242
0.21830764848438114
0.21295992950968226
0.20729911330068557
0.20134252497113658
0.1951085270525496
0.18861648969299455
0.18188675946811536
0.17494062690130877
0.16780029279488656
0.16048883347876555
0.15303016508778336
0.1454490069831269
0.1377708444375522
0.1300218907081074
0.12222904862389107
0.11441987182003197
0.10662252575252165
0.09886574863179252
0.09117881241599404
0.0835914840077875
0.07613398680115192
0.06883696272717228
0.06173143495006405
0.05484877136678755
0.048220649065509734
0.04187901989990277
0.035856077337813236
0.030184224744213683
0.024896045259560334
0.020024273435729528
0.015601768792610023
0.011661491459186
0.008236480063572976
0.005359832036975303
0.0030646864969278076
0.0013842098754814614
0.000351584458203276

