# vtk DataFile Version 2.0
mesh vtk view
ASCII
DATASET UNSTRUCTURED_GRID
POINTS 101 double
0.0 0.0 0.0
1.0 0.0 0.0
0.009999999999982233 -0.006288493661737202 -1.5136461010646016e-13
0.019999999999964855 -0.02475819060028011 -4.3050591996244384e-13
0.029999999999947007 -0.054815453757233706 -6.642567108563025e-13
0.03999999999992724 -0.09586677967253163 -8.576010869317112e-13
0.04999999999990644 -0.1473189484445391 -1.0166056877181226e-12
0.059999999999886804 -0.20857922872326623 -1.1489903244945209e-12
0.06999999999987085 -0.2790556347668511 -1.2599422366647516e-12
0.0799999999998574 -0.3581572325944933 -1.3526218794146912e-12
0.08999999999984382 -0.44529449227290485 -1.43394150253572e-12
0.09999999999983009 -0.5398796833785561 -1.5063442225462592e-12
0.10999999999981652 -0.6413273106849935 -1.5681964791225396e-12
0.11999999999980178 -0.7490545871336931 -1.6295399444537337e-12
0.12999999999978132 -0.862481941158006 -1.6727743591523932e-12
0.13999999999975457 -0.9810335554435932 -1.6690999147020971e-12
0.1499999999997267 -1.1041379342244413 -1.616794031220266e-12
0.15999999999969888 -1.2312284962325528 -1.5127218595775936e-12
0.1699999999996708 -1.361744190441361 -1.3674365136471493e-12
0.17999999999964258 -1.4951301317671877 -1.1714128445127265e-12
0.18999999999961445 -1.6308382539207509 -9.416499240765783e-13
0.19999999999958645 -1.7683279766317312 -7.014647857166166e-13
0.20999999999955826 -1.9070668845037035 -4.538226526696489e-13
0.2199999999995299 -2.046531414793864 -2.6383419112817784e-13
0.2299999999995013 -2.186207551453047 -1.823420642491726e-13
0.23999999999947275 -2.325591522806102 -1.6341036725359343e-13
0.24999999999944403 -2.4641905002999107 -1.4612010389787505e-13
0.2599999999994154 -2.601523295798026 -1.2912977459201017e-13
0.2699999999993867 -2.7371210549556837 -1.1014822959341712e-13
0.27999999999935815 -2.8705279442670584 -9.086769130512343e-14
0.2899999999993296 -3.0013018294383844 -7.086025168047434e-14
0.2999999999993012 -3.129014942805836 -5.068096492819251e-14
0.30999999999927275 -3.253254537585497 -2.9899875501788383e-14
0.3199999999992438 -3.37362352681476 -7.510179594432521e-15
0.3299999999992148 -3.4897411049195965 1.3004902075848054e-14
0.3399999999991857 -3.6012433499205705 3.365618558761655e-14
0.3499999999991563 -3.7077838043719007 5.248388771604932e-14
0.35999999999912696 -3.809034033212438 7.0995954363638e-14
0.3699999999990976 -3.9046841567946786 8.77389971626746e-14
0.3799999999990682 -3.994443357448359 1.0413815064645782e-13
0.3899999999990387 -4.078040358027806 1.1769827652965691e-13
0.3999999999990091 -4.155223870987763 1.3062081327893516e-13
0.40999999999897957 -4.2257630166301645 1.412261516483556e-13
0.4199999999989501 -4.289447709264302 1.5171054168195522e-13
0.4299999999989209 -4.3460890101250715 1.5893294029528057e-13
0.43999999999889156 -4.395519445997893 1.6495735511034926e-13
0.44999999999886214 -4.43759329260493 1.7144772225496483e-13
0.4599999999988325 -4.472186821914416 1.740567401499691e-13
0.4699999999988029 -4.499198512643951 1.7840548950777123e-13
0.4799999999987736 -4.51854922333849 1.7838454643313174e-13
0.48999999999874405 -4.530182327515112 1.787239936995521e-13
0.4999999999987253 -4.534063810478425 1.775567733302686e-13
0.5099999999987402 -4.530182327523292 1.7557222838240837e-13
0.519999999998766 -4.518549223354698 1.7144211241672454e-13
0.5299999999987918 -4.4991985126679666 1.6613104924442824e-13
0.5399999999988175 -4.472186821945975 1.5890504885012052e-13
0.5499999999988431 -4.43759329264371 1.5062614195922943e-13
0.5599999999988686 -4.395519446043532 1.429273985120445e-13
0.5699999999988943 -4.346089010177147 1.318589856887131e-13
0.5799999999989199 -4.289447709322328 1.2381013341475772e-13
0.5899999999989454 -4.225763016693605 1.1391360906297962e-13
0.599999999998971 -4.155223871056063 1.0520268233072046e-13
0.6099999999989968 -4.078040358100384 9.768726970284378e-14
0.6199999999990226 -3.994443357524639 9.159864846688002e-14
0.6299999999990483 -3.904684156874081 8.375330575892916e-14
0.6399999999990738 -3.8090340332943953 7.647286329689879e-14
0.6499999999990989 -3.7077838044558633 6.608206284809146e-14
0.659999999999124 -3.6012433500059817 5.869586877846438e-14
0.669999999999149 -3.4897411050059213 4.9339422455892686e-14
0.6799999999991739 -3.3736235269014467 4.098949786231304e-14
0.6899999999991988 -3.2532545376719995 3.2422286547382366e-14
0.6999999999992235 -3.129014942891621 2.6493992321485012e-14
0.7099999999992481 -3.001301829522947 1.8439964202421596e-14
0.7199999999992727 -2.8705279443499334 1.0616638601500944e-14
0.7299999999992973 -2.737121055036436 3.087121117016325e-15
0.7399999999993223 -2.6015232958762597 -4.5365982441402054e-15
0.7499999999993474 -2.46419050037526 -1.1898632392143116e-14
0.7599999999993727 -2.3255915228782436 -1.8741319991416218e-14
0.7699999999993977 -2.186207551521701 -2.5763444618243942e-14
0.7799999999994228 -2.0465314148588174 -3.277614820526011e-14
0.7899999999994478 -1.9070668845647714 -3.633795807608772e-14
0.7999999999994729 -1.768327976688709 -4.1641468007422304e-14
0.8099999999994983 -1.630838253973486 -4.5918504364225164e-14
0.819999999999524 -1.4951301318155747 -4.8551724664511244e-14
0.82999999999955 -1.361744190485324 -5.080560804281692e-14
0.839999999999576 -1.231228496272093 -5.1355185329269965e-14
0.8499999999996022 -1.1041379342596116 -5.1172902899609093e-14
0.8599999999996282 -0.9810335554744739 -5.079576594594714e-14
0.8699999999996543 -0.8624819411847212 -4.8563274537432886e-14
0.8799999999996805 -0.7490545871564553 -4.616235382934674e-14
0.8899999999997066 -0.6413273107040403 -4.267250487372915e-14
0.8999999999997328 -0.5398796833940982 -3.8566820254850254e-14
0.9099999999997589 -0.44529449228518575 -3.378247334889605e-14
0.9199999999997851 -0.3581572326037931 -2.9222267833768147e-14
0.9299999999998114 -0.2790556347734896 -2.3948145606162002e-14
0.9399999999998379 -0.20857922872758966 -1.876140823678547e-14
0.9499999999998646 -0.14731894844693713 -1.3860122462144826e-14
0.9599999999998913 -0.09586677967346127 -9.49861992236283e-15
0.969999999999918 -0.05481545375720581 -5.693128571968951e-15
0.9799999999999451 -0.024758190599848823 -2.681950308539613e-15
0.9899999999999723 -0.006288493661493076 -7.057079293715391e-16

CELLS 100 300
2 0 2
2 2 3
2 3 4
2 4 5
2 5 6
2 6 7
2 7 8
2 8 9
2 9 10
2 10 11
2 11 12
2 12 13
2 13 14
2 14 15
2 15 16
2 16 17
2 17 18
2 18 19
2 19 20
2 20 21
2 21 22
2 22 23
2 23 24
2 24 25
2 25 26
2 26 27
2 27 28
2 28 29
2 29 30
2 30 31
2 31 32
2 32 33
2 33 34
2 34 35
2 35 36
2 36 37
2 37 38
2 38 39
2 39 40
2 40 41
2 41 42
2 42 43
2 43 44
2 44 45
2 45 46
2 46 47
2 47 48
2 48 49
2 49 50
2 50 51
2 51 52
2 52 53
2 53 54
2 54 55
2 55 56
2 56 57
2 57 58
2 58 59
2 59 60
2 60 61
2 61 62
2 62 63
2 63 64
2 64 65
2 65 66
2 66 67
2 67 68
2 68 69
2 69 70
2 70 71
2 71 72
2 72 73
2 73 74
2 74 75
2 75 76
2 76 77
2 77 78
2 78 79
2 79 80
2 80 81
2 81 82
2 82 83
2 83 84
2 84 85
2 85 86
2 86 87
2 87 88
2 88 89
2 89 90
2 90 91
2 91 92
2 92 93
2 93 94
2 94 95
2 95 96
2 96 97
2 97 98
2 98 99
2 99 100
2 100 1

CELL_TYPES 100
3
3
3
3
3
3
3
3
3
3
3
3
3
3
3
3
3
3
3
3
3
3
3
3
3
3
3
3
3
3
3
3
3
3
3
3
3
3
3
3
3
3
3
3
3
3
3
3
3
3
3
3
3
3
3
3
3
3
3
3
3
3
3
3
3
3
3
3
3
3
3
3
3
3
3
3
3
3
3
3
3
3
3
3
3
3
3
3
3
3
3
3
3
3
3
3
3
3
3
3

POINT_DATA 101
SCALARS DISPL float 1
LOOKUP_TABLE default
0.0
0.0
0.0003515844582169249
0.0013842098755055742
0.003064686496929367
0.005359832036923327
0.008236480063438904
0.01166149145894428
0.015601768792238868
0.020024273435209582
0.02489604525887372
0.03018422474334474
0.035856077336748345
0.04187901989863015
0.04822064906401611
0.054848771365061035
0.061731434948097706
0.06883696272496163
0.07613398679869399
0.08359148400508222
0.09117881241304567
0.09886574862860695
0.1066225257491074
0.11441987181640047
0.12222904862005267
0.13002189070407402
0.13777084443333945
0.14544900697875293
0.15303016508326855
0.1604888334741321
0.16780029279015873
0.17494062689651257
0.1818867594632791
0.18861648968814798
0.19510852704772327
0.20134252496636132
0.2072991132959913
0.21295992950510012
0.21830764847994183
0.22332601084608764
0.22799984972361073
0.23231511583454278
0.23625890088670382
0.23981945916359637
0.24298622725577154
0.2457498418748839
0.24810215569757935
0.25003625119235434
0.25154645238862033
0.2526283345533505
0.25327873174691123
0.2534957422359316
0.2532787317473686
0.25262833455425665
0.25154645238996304
0.25003625119411876
0.2481021556997475
0.24574984187743554
0.24298622725868307
0.23981945916684053
0.2362589008902507
0.2323151158383614
0.22799984972766849
0.22332601085035242
0.21830764848438114
0.21295992950968226
0.20729911330068557
0.20134252497113658
0.1951085270525496
0.18861648969299455
0.18188675946811536
0.17494062690130877
0.16780029279488656
0.16048883347876555
0.15303016508778336
0.1454490069831269
0.1377708444375522
0.1300218907081074
0.12222904862389107
0.11441987182003197
0.10662252575252165
0.09886574863179252
0.09117881241599404
0.0835914840077875
0.07613398680115192
0.06883696272717228
0.06173143495006405
0.05484877136678755
0.048220649065509734
0.04187901989990277
0.035856077337813236
0.030184224744213683
0.024896045259560334
0.020024273435729528
0.015601768792610023
0.011661491459186
0.008236480063572976
0.005359832036975303
0.0030646864969278076
0.0013842098754814614
0.000351584458203276

