# vtk DataFile Version 2.0
mesh vtk view
ASCII
DATASET UNSTRUCTURED_GRID
POINTS 101 double
0.0 0.0 0.0
1.0 0.0 0.0
0.009999999999980658 0.0020961645539124 5.045487003548671e-14
0.019999999999961396 0.008252730200093367 1.4350197332081457e-13
0.029999999999941542 0.018271817919077896 2.2141890361876746e-13
0.03999999999991978 0.0319555932241772 2.85867028977237e-13
0.049999999999897037 0.04910631614817969 3.3886856257270746e-13
0.059999999999875125 0.06952640957442206 3.829967748315068e-13
0.06999999999985657 0.09301854492228366 4.1998074555491705e-13
0.07999999999984056 0.1193857441981644 4.508739598048969e-13
0.08999999999982465 0.14843149742430156 4.779805008452399e-13
0.09999999999980881 0.17995989445951865 5.021147408487529e-13
0.10999999999979289 0.21377577022833108 5.22732159707513e-13
0.11999999999977608 0.24968486237789764 5.431799814845778e-13
0.1299999999997533 0.28749398038600193 5.575914530507976e-13
0.1399999999997246 0.32701118514786426 5.563666382340322e-13
0.14999999999969482 0.3680459780748136 5.389313437400885e-13
0.15999999999966533 0.41040949874418414 5.042406198591977e-13
0.16999999999963572 0.45391473014712025 4.558121712157163e-13
0.1799999999996062 0.4983767105890624 3.9047094817090873e-13
0.18999999999957667 0.5436127513069168 3.1388330802552603e-13
0.19999999999954704 0.5894426588772436 2.338215952388721e-13
0.20999999999951752 0.6356889615012343 1.5127421755654959e-13
0.21999999999948805 0.6821771382646211 8.794473037605925e-14
0.22999999999945864 0.7287358504843487 6.078068808305752e-14
0.23999999999942934 0.7751971742687004 5.4470122417864466e-14
0.24999999999939984 0.8213968334333033 4.8706701299291665e-14
0.2599999999993705 0.8671744319326751 4.3043258197336716e-14
0.2699999999993411 0.9123736849852276 3.671607653113903e-14
0.2799999999993118 0.9568426480890192 3.0289230435041134e-14
0.2899999999992824 1.0004339431461278 2.362008389349144e-14
0.299999999999253 1.0430049809352782 1.6893654976064167e-14
0.30999999999922345 1.0844181791951655 9.966625167262792e-15
0.3199999999991942 1.1245411756049197 2.5033931981441732e-15
0.3299999999991651 1.1632470349731985 -4.334967358616017e-15
0.3399999999991359 1.2004144499735232 -1.1218728529205512e-14
0.3499999999991066 1.2359279347906331 -1.7494629238683103e-14
0.35999999999907745 1.2696780110708124 -2.3665318121212658e-14
0.36999999999904826 1.3015613855982258 -2.924633238755819e-14
0.3799999999990193 1.3314811191494524 -3.4712716882152594e-14
0.38999999999899015 1.3593467860092683 -3.923275884321896e-14
0.39999999999896113 1.3850746236625873 -4.3540271092978376e-14
0.409999999998932 1.4085876722100545 -4.707538388278519e-14
0.41999999999890286 1.4298159030881006 -5.0570180560651724e-14
0.42999999999887384 1.4486963367083567 -5.297764676509351e-14
0.4399999999988447 1.4651731486659638 -5.4985785036783066e-14
0.44999999999881557 1.4791977642016427 -5.714924075165492e-14
0.4599999999987864 1.4907289406381383 -5.801891338332302e-14
0.4699999999987573 1.4997328375479833 -5.946849650259039e-14
0.4799999999987283 1.506183074446163 -5.946151547771057e-14
0.4899999999986992 1.51006077583837 -5.957466456651735e-14
0.49999999999868106 1.511354603492808 -5.91855911100895e-14
0.5099999999986967 1.5100607758410969 -5.852407612746943e-14
0.5199999999987233 1.5061830744515656 -5.714737080557483e-14
0.5299999999987499 1.4997328375559884 -5.53770164148094e-14
0.5399999999987763 1.490728940648658 -5.2968349616706825e-14
0.549999999998803 1.4791977642145695 -5.0208713986409794e-14
0.5599999999988297 1.4651731486811768 -4.764246617068148e-14
0.5699999999988564 1.4486963367257155 -4.3952995229571014e-14
0.5799999999988831 1.4298159031074424 -4.127004447158589e-14
0.5899999999989097 1.4085876722312012 -3.79712030209932e-14
0.5999999999989363 1.3850746236853542 -3.506756077690681e-14
0.6099999999989629 1.3593467860334607 -3.256242323428125e-14
0.6199999999989894 1.3314811191748794 -3.053288282229333e-14
0.629999999999016 1.3015613856246933 -2.7917768586309714e-14
0.6399999999990427 1.2696780110981314 -2.549095443229959e-14
0.6499999999990694 1.2359279348186207 -2.2027354282697146e-14
0.6599999999990963 1.2004144500019935 -1.9565289592821455e-14
0.669999999999123 1.1632470350019735 -1.6446474151964223e-14
0.67999999999915 1.1245411756338153 -1.366316595410434e-14
0.6899999999991769 1.0844181792239995 -1.0807428849127451e-14
0.6999999999992038 1.0430049809638733 -8.831330773828335e-15
0.7099999999992308 1.0004339431743154 -6.14665473414053e-15
0.7199999999992577 0.9568426481166441 -3.538879533833647e-15
0.7299999999992848 0.9123736850121451 -1.0290403723387748e-15
0.7399999999993115 0.867174431958753 1.5121994147134014e-15
0.7499999999993382 0.8213968334584199 3.966210797381037e-15
0.7599999999993651 0.7751971742927477 6.247106663805404e-15
0.7699999999993918 0.7287358505072336 8.587814872747978e-15
0.7799999999994187 0.6821771382862722 1.09253827350867e-14
0.7899999999994455 0.6356889615215903 1.2112652692029236e-14
0.7999999999994721 0.5894426588962361 1.3880489335807432e-14
0.8099999999994989 0.5436127513244952 1.5306168121408384e-14
0.8199999999995257 0.49837671060519145 1.6183908221503743e-14
0.8299999999995522 0.4539147301617746 1.6935202680938966e-14
0.8399999999995786 0.41040949875736416 1.711839510975665e-14
0.8499999999996052 0.36804597808653705 1.705763429986969e-14
0.8599999999996316 0.32701118515815786 1.6931921981982374e-14
0.8699999999996579 0.287493980394907 1.618775817914429e-14
0.8799999999996845 0.24968486238548504 1.5387451276448907e-14
0.8899999999997109 0.21377577023468003 1.4224168291243046e-14
0.8999999999997373 0.17995989446469934 1.2855606751616747e-14
0.9099999999997638 0.1484314974283952 1.1260824449632013e-14
0.9199999999997901 0.11938574420126434 9.74075594458938e-15
0.9299999999998166 0.0930185449244965 7.982715202053998e-15
0.9399999999998431 0.0695264095758632 6.253802745595155e-15
0.9499999999998694 0.049106316148979035 4.6200408207149406e-15
0.9599999999998956 0.03195559322448708 3.1662066407876094e-15
0.9699999999999217 0.018271817919068598 1.8977095239896497e-15
0.9799999999999479 0.008252730199949605 8.939834361798706e-16
0.989999999999974 0.0020961645538310246 2.352359764571796e-16

CELLS 100 300
2 0 2
2 2 3
2 3 4
2 4 5
2 5 6
2 6 7
2 7 8
2 8 9
2 9 10
2 10 11
2 11 12
2 12 13
2 13 14
2 14 15
2 15 16
2 16 17
2 17 18
2 18 19
2 19 20
2 20 21
2 21 22
2 22 23
2 23 24
2 24 25
2 25 26
2 26 27
2 27 28
2 28 29
2 29 30
2 30 31
2 31 32
2 32 33
2 33 34
2 34 35
2 35 36
2 36 37
2 37 38
2 38 39
2 39 40
2 40 41
2 41 42
2 42 43
2 43 44
2 44 45
2 45 46
2 46 47
2 47 48
2 48 49
2 49 50
2 50 51
2 51 52
2 52 53
2 53 54
2 54 55
2 55 56
2 56 57
2 57 58
2 58 59
2 59 60
2 60 61
2 61 62
2 62 63
2 63 64
2 64 65
2 65 66
2 66 67
2 67 68
2 68 69
2 69 70
2 70 71
2 71 72
2 72 73
2 73 74
2 74 75
2 75 76
2 76 77
2 77 78
2 78 79
2 79 80
2 80 81
2 81 82
2 82 83
2 83 84
2 84 85
2 85 86
2 86 87
2 87 88
2 88 89
2 89 90
2 90 91
2 91 92
2 92 93
2 93 94
2 94 95
2 95 96
2 96 97
2 97 98
2 98 99
2 99 100
2 100 1

CELL_TYPES 100
3
3
3
3
3
3
3
3
3
3
3
3
3
3
3
3
3
3
3
3
3
3
3
3
3
3
3
3
3
3
3
3
3
3
3
3
3
3
3
3
3
3
3
3
3
3
3
3
3
3
3
3
3
3
3
3
3
3
3
3
3
3
3
3
3
3
3
3
3
3
3
3
3
3
3
3
3
3
3
3
3
3
3
3
3
3
3
3
3
3
3
3
3
3
3
3
3
3
3
3

POINT_DATA 101
SCALARS DISPL float 1
LOOKUP_TABLE default
0.0
0.0
0.0003515844582169249
0.0013842098755055742
0.003064686496929367
0.005359832036923327
0.008236480063438904
0.01166149145894428
0.015601768792238868
0.020024273435209582
0.02489604525887372
0.03018422474334474
0.035856077336748345
0.04187901989863015
0.04822064906401611
0.054848771365061035
0.061731434948097706
0.06883696272496163
0.07613398679869399
0.08359148400508222
0.09117881241304567
0.09886574862860695
0.1066225257491074
0.11441987181640047
0.12222904862005267
0.13002189070407402
0.13777084443333945
0.14544900697875293
0.15303016508326855
0.1604888334741321
0.16780029279015873
0.17494062689651257
0.1818867594632791
0.18861648968814798
0.19510852704772327
0.20134252496636132
0.2072991132959913
0.21295992950510012
0.21830764847994183
0.22332601084608764
0.22799984972361073
0.23231511583454278
0.23625890088670382
0.23981945916359637
0.24298622725577154
0.2457498418748839
0.24810215569757935
0.25003625119235434
0.25154645238862033
0.2526283345533505
0.25327873174691123
0.2534957422359316
0.2532787317473686
0.25262833455425665
0.25154645238996304
0.25003625119411876
0.2481021556997475
0.24574984187743554
0.24298622725868307
0.23981945916684053
0.2362589008902507
0.2323151158383614
0.22799984972766849
0.22332601085035242
0.21830764848438114
0.21295992950968226
0.20729911330068557
0.20134252497113658
0.1951085270525496
0.18861648969299455
0.18188675946811536
0.17494062690130877
0.16780029279488656
0.16048883347876555
0.15303016508778336
0.1454490069831269
0.1377708444375522
0.1300218907081074
0.12222904862389107
0.11441987182003197
0.10662252575252165
0.09886574863179252
0.09117881241599404
0.0835914840077875
0.07613398680115192
0.06883696272717228
0.06173143495006405
0.05484877136678755
0.048220649065509734
0.04187901989990277
0.035856077337813236
0.030184224744213683
0.024896045259560334
0.020024273435729528
0.015601768792610023
0.011661491459186
0.008236480063572976
0.005359832036975303
0.0030646864969278076
0.0013842098754814614
0.000351584458203276

