# vtk DataFile Version 2.0
mesh vtk view
ASCII
DATASET UNSTRUCTURED_GRID
POINTS 101 double
0.0 0.0 0.0
1.0 0.0 0.0
0.009999999999981052 -0.11309133078413956 0.0
0.01999999999996226 -0.22573634175209303 0.0
0.02999999999994291 -0.33749047450825825 0.0
0.03999999999992165 -0.44791268654630456 0.0
0.04999999999989939 -0.5565671918425046 0.0
0.05999999999987805 -0.663025180704071 0.0
0.06999999999986013 -0.7668665120851214 0.0
0.07999999999984476 -0.8676813716913677 0.0
0.08999999999982944 -0.965071889329914 0.0
0.09999999999981413 -1.0586537091211725 0.0
0.1099999999997988 -1.148057506375911 0.0
0.1199999999997825 -1.2329304451510579 0.0
0.1299999999997603 -1.3129375707319715 0.0
0.1399999999997321 -1.3877631315457353 0.0
0.1499999999997028 -1.4571118252883433 0.0
0.1599999999996737 -1.5207099643479163 0.0
0.1699999999996445 -1.5783065559247575 0.0
0.1799999999996153 -1.62967429258527 0.0
0.1899999999995861 -1.6746104493404763 0.0
0.1999999999995569 -1.7129376837089465 0.0
0.2099999999995277 -1.7445047356065944 0.0
0.2199999999994985 -1.7691870243010723 0.0
0.2299999999994693 -1.7868871400750455 0.0
0.2399999999994402 -1.797535228657848 0.0
0.2499999999994109 -1.8010892669083902 0.0
0.2599999999993817 -1.7975352286612982 0.0
0.2699999999993525 -1.7868871400817041 0.0
0.2799999999993234 -1.7691870243105434 0.0
0.2899999999992942 -1.7445047356183905 0.0
0.299999999999265 -1.7129376837224188 0.0
0.3099999999992358 -1.6746104493548144 0.0
0.3199999999992066 -1.6296742925995964 0.0
0.3299999999991775 -1.5783065559381542 0.0
0.3399999999991483 -1.5207099643594482 0.0
0.349999999999119 -1.4571118252970505 0.0
0.3599999999990898 -1.3877631315506331 0.0
0.3699999999990606 -1.3129375707321214 0.0
0.3799999999990315 -1.2329304451456597 0.0
0.3899999999990023 -1.1480575063643057 0.0
0.3999999999989731 -1.0586537091027801 0.0
0.4099999999989439 -0.9650718893042459 0.0
0.4199999999989147 -0.8676813716580324 0.0
0.4299999999988856 -0.7668665120438368 0.0
0.4399999999988564 -0.6630251806546944 0.0
0.4499999999988272 -0.5565671917850589 0.0
0.4599999999987979 -0.44791268648099003 0.0
0.4699999999987687 -0.33749047443538704 0.0
0.4799999999987396 -0.22573634167211518 0.0
0.4899999999987104 -0.11309133069766274 0.0
0.4999999999986921 9.234700386769471e-11 0.0
0.5099999999987076 0.11309133088206832 0.0
0.5199999999987339 0.2257363418551423 0.0
0.5299999999987604 0.3374904746157312 0.0
0.5399999999987867 0.44791268665742945 0.0
0.549999999998813 0.5565671919564462 0.0
0.5599999999988394 0.6630251808198483 0.0
0.5699999999988659 0.7668665122015682 0.0
0.5799999999988923 0.8676813718072057 0.0
0.5899999999989186 0.9650718894438427 0.0
0.5999999999989449 1.0586537092319486 0.0
0.6099999999989714 1.148057506482303 0.0
0.6199999999989977 1.232930445251898 0.0
0.6299999999990241 1.3129375708263138 0.0
0.6399999999990504 1.3877631316327936 0.0
0.6499999999990768 1.4571118253674429 0.0
0.6599999999991032 1.52070996441861 0.0
0.6699999999991295 1.5783065559868952 0.0
0.679999999999156 1.6296742926388639 0.0
0.6899999999991824 1.6746104493855531 0.0
0.6999999999992087 1.712937683745626 0.0
0.7099999999992351 1.744504735635183 0.0
0.7199999999992615 1.7691870243222307 0.0
0.7299999999992879 1.7868871400897568 0.0
0.7399999999993142 1.797535228667183 0.0
0.7499999999993405 1.8010892669136538 0.0
0.759999999999367 1.7975352286639645 0.0
0.7699999999993933 1.7868871400832238 0.0
0.7799999999994197 1.769187024312315 0.0
0.789999999999446 1.7445047356217107 0.0
0.7999999999994724 1.7129376837284633 0.0
0.8099999999994988 1.6746104493646294 0.0
0.8199999999995252 1.6296742926140788 0.0
0.8299999999995517 1.5783065559580272 0.0
0.839999999999578 1.5207099643853552 0.0
0.8499999999996044 1.457111825329545 0.0
0.8599999999996307 1.3877631315900854 0.0
0.869999999999657 1.3129375707786204 0.0
0.8799999999996835 1.2329304451990672 0.0
0.8899999999997098 1.1480575064243275 0.0
0.8999999999997362 1.058653709168967 0.0
0.9099999999997626 0.9650718893760059 0.0
0.9199999999997889 0.8676813717347341 0.0
0.9299999999998153 0.7668665121248734 0.0
0.9399999999998417 0.6630251807394344 0.0
0.9499999999998682 0.5565671918728238 0.0
0.9599999999998945 0.447912686571065 0.0
0.9699999999999208 0.3374904745270795 0.0
0.9799999999999472 0.22573634176472107 0.0
0.9899999999999736 0.11309133079044273 0.0

CELLS 100 300
2 0 2
2 2 3
2 3 4
2 4 5
2 5 6
2 6 7
2 7 8
2 8 9
2 9 10
2 10 11
2 11 12
2 12 13
2 13 14
2 14 15
2 15 16
2 16 17
2 17 18
2 18 19
2 19 20
2 20 21
2 21 22
2 22 23
2 23 24
2 24 25
2 25 26
2 26 27
2 27 28
2 28 29
2 29 30
2 30 31
2 31 32
2 32 33
2 33 34
2 34 35
2 35 36
2 36 37
2 37 38
2 38 39
2 39 40
2 40 41
2 41 42
2 42 43
2 43 44
2 44 45
2 45 46
2 46 47
2 47 48
2 48 49
2 49 50
2 50 51
2 51 52
2 52 53
2 53 54
2 54 55
2 55 56
2 56 57
2 57 58
2 58 59
2 59 60
2 60 61
2 61 62
2 62 63
2 63 64
2 64 65
2 65 66
2 66 67
2 67 68
2 68 69
2 69 70
2 70 71
2 71 72
2 72 73
2 73 74
2 74 75
2 75 76
2 76 77
2 77 78
2 78 79
2 79 80
2 80 81
2 81 82
2 82 83
2 83 84
2 84 85
2 85 86
2 86 87
2 87 88
2 88 89
2 89 90
2 90 91
2 91 92
2 92 93
2 93 94
2 94 95
2 95 96
2 96 97
2 97 98
2 98 99
2 99 100
2 100 1

CELL_TYPES 100
3
3
3
3
3
3
3
3
3
3
3
3
3
3
3
3
3
3
3
3
3
3
3
3
3
3
3
3
3
3
3
3
3
3
3
3
3
3
3
3
3
3
3
3
3
3
3
3
3
3
3
3
3
3
3
3
3
3
3
3
3
3
3
3
3
3
3
3
3
3
3
3
3
3
3
3
3
3
3
3
3
3
3
3
3
3
3
3
3
3
3
3
3
3
3
3
3
3
3
3

POINT_DATA 101
SCALARS MODE2_792.8665_Hz float 1
LOOKUP_TABLE default
0.0
0.0
-0.011309133078413957
-0.022573634175209304
-0.033749047450825825
-0.044791268654630456
-0.05565671918425046
-0.0663025180704071
-0.07668665120851213
-0.08676813716913677
-0.0965071889329914
-0.10586537091211726
-0.11480575063759112
-0.1232930445151058
-0.13129375707319715
-0.13877631315457353
-0.14571118252883433
-0.15207099643479163
-0.15783065559247575
-0.162967429258527
-0.16746104493404762
-0.17129376837089466
-0.17445047356065943
-0.17691870243010724
-0.17868871400750455
-0.1797535228657848
-0.18010892669083903
-0.17975352286612983
-0.1786887140081704
-0.17691870243105434
-0.17445047356183904
-0.1712937683722419
-0.16746104493548145
-0.16296742925995963
-0.15783065559381543
-0.15207099643594482
-0.14571118252970505
-0.1387763131550633
-0.13129375707321214
-0.12329304451456598
-0.11480575063643056
-0.10586537091027802
-0.09650718893042459
-0.08676813716580324
-0.07668665120438369
-0.06630251806546944
-0.055656719178505884
-0.044791268648099
-0.0337490474435387
-0.022573634167211518
-0.011309133069766273
9.234700386769472e-12
0.011309133088206833
0.02257363418551423
0.03374904746157312
0.04479126866574294
0.05565671919564462
0.06630251808198483
0.07668665122015682
0.08676813718072057
0.09650718894438427
0.10586537092319485
0.11480575064823031
0.12329304452518981
0.13129375708263138
0.13877631316327937
0.14571118253674428
0.152070996441861
0.15783065559868953
0.16296742926388638
0.16746104493855532
0.17129376837456262
0.1744504735635183
0.17691870243222307
0.17868871400897568
0.1797535228667183
0.18010892669136538
0.17975352286639645
0.17868871400832237
0.17691870243123148
0.17445047356217108
0.17129376837284632
0.16746104493646294
0.1629674292614079
0.15783065559580273
0.15207099643853553
0.1457111825329545
0.13877631315900854
0.13129375707786203
0.12329304451990672
0.11480575064243274
0.1058653709168967
0.09650718893760059
0.08676813717347341
0.07668665121248734
0.06630251807394344
0.05565671918728238
0.044791268657106496
0.033749047452707945
0.022573634176472106
0.011309133079044274

