# vtk DataFile Version 2.0
mesh vtk view
ASCII
DATASET UNSTRUCTURED_GRID
POINTS 101 double
0.0 0.0 0.0
1000.0 0.0 0.0
9.999999999994726 -0.0009225439649529763 0.0
19.99999999998992 -0.0010845154743822937 0.0
29.99999999998562 -0.0003523804384975425 0.0
39.99999999997797 0.0006702674244913511 0.0
49.99999999996744 0.001140327052914474 0.0
59.99999999995786 0.0006702674244969313 0.0
69.99999999995445 -0.00035238043849141864 0.0
79.99999999995798 -0.0010845154743805683 0.0
89.99999999996166 -0.0009225439649557392 0.0
99.99999999996537 -3.731095771908454e-15 0.0
109.999999999969 0.0009225439649513436 0.0
119.9999999999717 0.0010845154743828955 0.0
129.9999999999648 0.0003523804384996733 0.0
139.9999999999431 -0.0006702674244883068 0.0
149.9999999999183 -0.0011403270529144588 0.0
159.9999999998936 -0.0006702674245025086 0.0
169.9999999998689 0.0003523804384826679 0.0
179.9999999998441 0.001084515474376766 0.0
189.9999999998194 0.0009225439649647004 0.0
199.9999999997947 2.2057727204353406e-14 0.0
209.99999999977 -0.0009225439649387692 0.0
219.9999999997452 -0.0010845154743904003 0.0
229.9999999997205 -0.000352380438524626 0.0
239.9999999996957 0.000670267424466805 0.0
249.999999999671 0.0011403270529144547 0.0
259.9999999996635 0.000670267424522502 0.0
269.9999999996674 -0.00035238043846208653 0.0
279.999999999671 -0.0010845154743710198 0.0
289.9999999996747 -0.0009225439649738361 0.0
299.9999999996784 -3.4550938190080563e-14 0.0
309.9999999996821 0.0009225439649332212 0.0
319.9999999996858 0.0010845154743923768 0.0
329.9999999996894 0.00035238043852780696 0.0
339.9999999996932 -0.000670267424466588 0.0
349.9999999996969 -0.001140327052914455 0.0
359.9999999997005 -0.0006702674245192871 0.0
369.9999999997042 0.0003523804384658425 0.0
379.9999999997079 0.0010845154743722451 0.0
389.9999999997116 0.0009225439649715098 0.0
399.9999999997153 3.058545669848749e-14 0.0
409.999999999719 -0.0009225439649355519 0.0
419.9999999997227 -0.0010845154743911508 0.0
429.9999999997264 -0.00035238043852402694 0.0
439.9999999997301 0.000670267424469794 0.0
449.9999999997338 0.0011403270529144558 0.0
459.9999999997374 0.0006702674245160825 0.0
469.9999999997411 -0.000352380438469612 0.0
479.9999999997448 -0.0010845154743734722 0.0
489.9999999997486 -0.000922543964969177 0.0
499.9999999997633 -2.5435643994029205e-14 0.0
509.9999999998065 0.0009225439649410736 0.0
519.9999999998261 0.0010845154743877217 0.0
529.9999999998297 0.00035238043851347863 0.0
539.9999999998333 -0.0006702674244787604 0.0
549.999999999837 -0.0011403270529144543 0.0
559.9999999998406 -0.0006702674245071158 0.0
569.9999999998441 0.0003523804384801317 0.0
579.9999999998479 0.0010845154743768857 0.0
589.9999999998514 0.0009225439649626811 0.0
599.999999999855 1.558023560570426e-14 0.0
609.9999999998587 -0.0009225439649443669 0.0
619.9999999998623 -0.0010845154743865152 0.0
629.9999999998658 -0.00035238043850978064 0.0
639.9999999998696 0.0006702674244819166 0.0
649.9999999998732 0.001140327052914457 0.0
659.9999999998768 0.0006702674245039765 0.0
669.9999999998805 -0.00035238043848384717 0.0
679.999999999884 -0.001084515474378087 0.0
689.9999999998877 -0.0009225439649603931 0.0
699.9999999998913 -1.168511769877442e-14 0.0
709.999999999895 0.0009225439649466588 0.0
719.9999999998985 0.001084515474385319 0.0
729.9999999999021 0.00035238043850607803 0.0
739.9999999999058 -0.0006702674244850595 0.0
749.9999999999094 -0.0011403270529144593 0.0
759.999999999913 -0.0006702674245008232 0.0
769.9999999999167 0.00035238043848754457 0.0
779.9999999999203 0.001084515474379294 0.0
789.9999999999238 0.0009225439649581098 0.0
799.9999999999276 7.788989940586589e-15 0.0
809.9999999999311 -0.0009225439649489388 0.0
819.9999999999347 -0.0010845154743841104 0.0
829.9999999999384 -0.0003523804385023694 0.0
839.999999999942 0.0006702674244882133 0.0
849.9999999999455 0.001140327052914462 0.0
859.9999999999493 0.0006702674244976752 0.0
869.9999999999529 -0.0003523804384912458 0.0
879.9999999999565 -0.0010845154743804944 0.0
889.9999999999602 -0.0009225439649558169 0.0
899.9999999999637 -3.909513182944482e-15 0.0
909.9999999999674 0.000922543964951226 0.0
919.9999999999709 0.00108451547438291 0.0
929.9999999999746 0.00035238043849866626 0.0
939.9999999999782 -0.0006702674244913514 0.0
949.9999999999818 -0.0011403270529144575 0.0
959.9999999999854 -0.0006702674244945309 0.0
969.9999999999891 0.00035238043849494176 0.0
979.9999999999927 0.0010845154743816974 0.0
989.9999999999964 0.0009225439649535247 0.0

CELLS 100 300
2 0 2
2 2 3
2 3 4
2 4 5
2 5 6
2 6 7
2 7 8
2 8 9
2 9 10
2 10 11
2 11 12
2 12 13
2 13 14
2 14 15
2 15 16
2 16 17
2 17 18
2 18 19
2 19 20
2 20 21
2 21 22
2 22 23
2 23 24
2 24 25
2 25 26
2 26 27
2 27 28
2 28 29
2 29 30
2 30 31
2 31 32
2 32 33
2 33 34
2 34 35
2 35 36
2 36 37
2 37 38
2 38 39
2 39 40
2 40 41
2 41 42
2 42 43
2 43 44
2 44 45
2 45 46
2 46 47
2 47 48
2 48 49
2 49 50
2 50 51
2 51 52
2 52 53
2 53 54
2 54 55
2 55 56
2 56 57
2 57 58
2 58 59
2 59 60
2 60 61
2 61 62
2 62 63
2 63 64
2 64 65
2 65 66
2 66 67
2 67 68
2 68 69
2 69 70
2 70 71
2 71 72
2 72 73
2 73 74
2 74 75
2 75 76
2 76 77
2 77 78
2 78 79
2 79 80
2 80 81
2 81 82
2 82 83
2 83 84
2 84 85
2 85 86
2 86 87
2 87 88
2 88 89
2 89 90
2 90 91
2 91 92
2 92 93
2 93 94
2 94 95
2 95 96
2 96 97
2 97 98
2 98 99
2 99 100
2 100 1

CELL_TYPES 100
3
3
3
3
3
3
3
3
3
3
3
3
3
3
3
3
3
3
3
3
3
3
3
3
3
3
3
3
3
3
3
3
3
3
3
3
3
3
3
3
3
3
3
3
3
3
3
3
3
3
3
3
3
3
3
3
3
3
3
3
3
3
3
3
3
3
3
3
3
3
3
3
3
3
3
3
3
3
3
3
3
3
3
3
3
3
3
3
3
3
3
3
3
3
3
3
3
3
3
3

POINT_DATA 101
SCALARS MODE4_0.1785_Hz float 1
LOOKUP_TABLE default
0.0
0.0
-4.6127198247648816e-06
-5.422577371911468e-06
-1.7619021924877124e-06
3.351337122456756e-06
5.7016352645723704e-06
3.3513371224846564e-06
-1.7619021924570932e-06
-5.422577371902842e-06
-4.612719824778696e-06
-1.865547885954227e-17
4.612719824756718e-06
5.422577371914477e-06
1.7619021924983666e-06
-3.351337122441534e-06
-5.701635264572294e-06
-3.351337122512543e-06
1.7619021924133395e-06
5.42257737188383e-06
4.612719824823502e-06
1.1028863602176703e-16
-4.612719824693846e-06
-5.422577371952002e-06
-1.76190219262313e-06
3.351337122334025e-06
5.701635264572274e-06
3.35133712261251e-06
-1.7619021923104326e-06
-5.422577371855099e-06
-4.612719824869181e-06
-1.7275469095040282e-16
4.612719824666106e-06
5.422577371961884e-06
1.7619021926390348e-06
-3.35133712233294e-06
-5.701635264572275e-06
-3.351337122596436e-06
1.7619021923292124e-06
5.4225773718612256e-06
4.612719824857549e-06
1.5292728349243745e-16
-4.612719824677759e-06
-5.422577371955754e-06
-1.7619021926201348e-06
3.3513371223489697e-06
5.701635264572279e-06
3.351337122580413e-06
-1.76190219234806e-06
-5.422577371867361e-06
-4.612719824845885e-06
-1.2717821997014603e-16
4.612719824705368e-06
5.422577371938608e-06
1.7619021925673932e-06
-3.351337122393802e-06
-5.701635264572271e-06
-3.3513371225355787e-06
1.7619021924006586e-06
5.422577371884429e-06
4.6127198248134056e-06
7.790117802852129e-17
-4.6127198247218345e-06
-5.422577371932576e-06
-1.7619021925489031e-06
3.3513371224095834e-06
5.701635264572285e-06
3.3513371225198823e-06
-1.761902192419236e-06
-5.4225773718904355e-06
-4.6127198248019655e-06
-5.84255884938721e-17
4.612719824733294e-06
5.422577371926595e-06
1.7619021925303901e-06
-3.3513371224252976e-06
-5.701635264572297e-06
-3.351337122504116e-06
1.7619021924377228e-06
5.42257737189647e-06
4.612719824790549e-06
3.894494970293294e-17
-4.612719824744694e-06
-5.422577371920553e-06
-1.7619021925118471e-06
3.3513371224410668e-06
5.70163526457231e-06
3.351337122488376e-06
-1.7619021924562292e-06
-5.422577371902472e-06
-4.612719824779085e-06
-1.954756591472241e-17
4.61271982475613e-06
5.4225773719145505e-06
1.7619021924933312e-06
-3.3513371224567568e-06
-5.701635264572287e-06
-3.3513371224726543e-06
1.7619021924747087e-06
5.422577371908487e-06
4.612719824767623e-06

