# vtk DataFile Version 2.0
mesh vtk view
ASCII
DATASET UNSTRUCTURED_GRID
POINTS 101 double
0.0 0.0 0.0
1000.0 0.0 0.0
9.999999999994726 0.0008550603768798622 0.0
19.99999999998992 0.0011309231455981033 0.0
29.99999999998562 0.0006407254130271406 0.0
39.99999999997797 -0.000283484509498945 0.0
49.99999999996744 -0.0010156687525615035 0.0
59.99999999995786 -0.0010598630851171708 0.0
69.99999999995445 -0.00038613131505226033 0.0
79.99999999995798 0.0005491566446834208 0.0
89.99999999996166 0.0011124589251529596 0.0
99.99999999996537 0.0009222079290937547 0.0
109.999999999969 0.00010727516645711741 0.0
119.9999999999717 -0.0007803232482284147 0.0
129.9999999999648 -0.0011393492121395648 0.0
139.9999999999431 -0.0007266070572437837 0.0
149.9999999999183 0.0001783214753708313 0.0
159.9999999998936 0.0009624592722538549 0.0
169.9999999998689 0.0010946499978966757 0.0
179.9999999998441 0.0004853507917207527 0.0
189.9999999998194 -0.0004527135230768305 0.0
199.9999999997947 -0.001084120440528539 0.0
209.99999999977 -0.000981169898449432 0.0
219.9999999997452 -0.0002135981509605809 0.0
229.9999999997205 0.0006986599151659177 0.0
239.9999999996957 0.0011376623344132508 0.0
249.999999999671 0.0008060392857962398 0.0
259.9999999996635 -7.157564718426562e-05 0.0
269.9999999996674 -0.0009007069352993314 0.0
279.999999999671 -0.0011197207198007904 0.0
289.9999999996747 -0.0005802622604061523 0.0
299.9999999996784 0.000352252084188843 0.0
309.9999999996821 0.0010461592261241262 0.0
319.9999999996858 0.0010314229343180536 0.0
329.9999999996894 0.00031802522313833376 0.0
339.9999999996932 -0.0006107952272510508 0.0
349.9999999996969 -0.0011258774852663867 0.0
359.9999999997005 -0.0008783170525632579 0.0
369.9999999997042 -3.580549148556049e-05 0.0
379.9999999997079 0.0008309598598369829 0.0
389.9999999997116 0.00113485272132092 0.0
399.9999999997153 0.0006700232801711999 0.0
409.999999999719 -0.0002486640308806589 0.0
419.9999999997227 -0.000998912228372257 0.0
429.9999999997264 -0.0010725209871978016 0.0
439.9999999997301 -0.0004196294809123285 0.0
449.9999999997338 0.0005175090776641405 0.0
459.9999999997374 0.0011040992678560718 0.0
469.9999999997411 0.0009427988149921044 0.0
479.9999999997448 0.00014286881807820117 0.0
489.9999999997486 -0.0007538371258324185 0.0
499.9999999997633 -0.0011399116897467534 0.0
509.9999999998065 -0.0007538371258647087 0.0
519.9999999998261 0.00014286881803700157 0.0
529.9999999998297 0.0009427988149687551 0.0
539.9999999998333 0.001104099267866392 0.0
549.999999999837 0.0005175090777011394 0.0
559.9999999998406 -0.0004196294808737044 0.0
569.9999999998441 -0.0010725209871837108 0.0
579.9999999998479 -0.0009989122283922528 0.0
589.9999999998514 -0.0002486640309212092 0.0
599.999999999855 0.0006700232801375646 0.0
609.9999999998587 0.0011348527213169857 0.0
619.9999999998623 0.0008309598598654239 0.0
629.9999999998658 -3.58054914439907e-05 0.0
639.9999999998696 -0.0008783170525367322 0.0
649.9999999998732 -0.001125877485272869 0.0
659.9999999998768 -0.0006107952272861637 0.0
669.9999999998805 0.0003180252230983685 0.0
679.999999999884 0.0010314229343003042 0.0
689.9999999998877 0.0010461592261406187 0.0
699.9999999998913 0.00035225208422840794 0.0
709.999999999895 -0.0005802622603703194 0.0
719.9999999998985 -0.0011197207197929655 0.0
729.9999999999021 -0.0009007069353248246 0.0
739.9999999999058 -7.157564722583183e-05 0.0
749.9999999999094 0.0008060392857675355 0.0
759.999999999913 0.001137662334415607 0.0
769.9999999999167 0.0006986599151936304 0.0
779.9999999999203 -0.00021359815092880007 0.0
789.9999999999238 -0.0009811698984343402 0.0
799.9999999999276 -0.0010841204405368156 0.0
809.9999999999311 -0.0004527135230989646 0.0
819.9999999999347 0.00048535079170139125 0.0
829.9999999999384 0.0010946499978914536 0.0
839.999999999942 0.0009624592722623557 0.0
849.9999999999455 0.00017832147538383392 0.0
859.9999999999493 -0.0007266070572357579 0.0
869.9999999999529 -0.0011393492121393092 0.0
879.9999999999565 -0.0007803232482334866 0.0
889.9999999999602 0.00010727516645028101 0.0
899.9999999999637 0.0009222079290896995 0.0
909.9999999999674 0.001112458925154444 0.0
919.9999999999709 0.0005491566446894537 0.0
929.9999999999746 -0.0003861313150457923 0.0
939.9999999999782 -0.0010598630851148796 0.0
949.9999999999818 -0.0010156687525637342 0.0
959.9999999999854 -0.0002834845095023918 0.0
969.9999999999891 0.0006407254130250896 0.0
979.9999999999927 0.0011309231455978697 0.0
989.9999999999964 0.0008550603768804188 0.0

CELLS 100 300
2 0 2
2 2 3
2 3 4
2 4 5
2 5 6
2 6 7
2 7 8
2 8 9
2 9 10
2 10 11
2 11 12
2 12 13
2 13 14
2 14 15
2 15 16
2 16 17
2 17 18
2 18 19
2 19 20
2 20 21
2 21 22
2 22 23
2 23 24
2 24 25
2 25 26
2 26 27
2 27 28
2 28 29
2 29 30
2 30 31
2 31 32
2 32 33
2 33 34
2 34 35
2 35 36
2 36 37
2 37 38
2 38 39
2 39 40
2 40 41
2 41 42
2 42 43
2 43 44
2 44 45
2 45 46
2 46 47
2 47 48
2 48 49
2 49 50
2 50 51
2 51 52
2 52 53
2 53 54
2 54 55
2 55 56
2 56 57
2 57 58
2 58 59
2 59 60
2 60 61
2 61 62
2 62 63
2 63 64
2 64 65
2 65 66
2 66 67
2 67 68
2 68 69
2 69 70
2 70 71
2 71 72
2 72 73
2 73 74
2 74 75
2 75 76
2 76 77
2 77 78
2 78 79
2 79 80
2 80 81
2 81 82
2 82 83
2 83 84
2 84 85
2 85 86
2 86 87
2 87 88
2 88 89
2 89 90
2 90 91
2 91 92
2 92 93
2 93 94
2 94 95
2 95 96
2 96 97
2 97 98
2 98 99
2 99 100
2 100 1

CELL_TYPES 100
3
3
3
3
3
3
3
3
3
3
3
3
3
3
3
3
3
3
3
3
3
3
3
3
3
3
3
3
3
3
3
3
3
3
3
3
3
3
3
3
3
3
3
3
3
3
3
3
3
3
3
3
3
3
3
3
3
3
3
3
3
3
3
3
3
3
3
3
3
3
3
3
3
3
3
3
3
3
3
3
3
3
3
3
3
3
3
3
3
3
3
3
3
3
3
3
3
3
3
3

POINT_DATA 101
SCALARS MODE1_0.1446_Hz float 1
LOOKUP_TABLE default
0.0
0.0
4.275301884399311e-06
5.654615727990516e-06
3.2036270651357027e-06
-1.417422547494725e-06
-5.0783437628075175e-06
-5.299315425585854e-06
-1.9306565752613017e-06
2.745783223417104e-06
5.562294625764798e-06
4.6110396454687736e-06
5.363758322855871e-07
-3.901616241142074e-06
-5.6967460606978245e-06
-3.6330352862189183e-06
8.916073768541564e-07
4.812296361269275e-06
5.473249989483378e-06
2.4267539586037637e-06
-2.2635676153841525e-06
-5.420602202642695e-06
-4.905849492247161e-06
-1.0679907548029045e-06
3.4932995758295882e-06
5.688311672066254e-06
4.030196428981199e-06
-3.578782359213281e-07
-4.503534676496657e-06
-5.598603599003952e-06
-2.9013113020307615e-06
1.7612604209442151e-06
5.230796130620631e-06
5.157114671590268e-06
1.590126115691669e-06
-3.053976136255254e-06
-5.629387426331933e-06
-4.39158526281629e-06
-1.7902745742780246e-07
4.154799299184915e-06
5.674263606604601e-06
3.3501164008559993e-06
-1.2433201544032945e-06
-4.994561141861286e-06
-5.362604935989008e-06
-2.0981474045616424e-06
2.5875453883207025e-06
5.520496339280359e-06
4.713994074960522e-06
7.143440903910059e-07
-3.7691856291620926e-06
-5.699558448733767e-06
-3.7691856293235434e-06
7.143440901850078e-07
4.713994074843776e-06
5.52049633933196e-06
2.5875453885056974e-06
-2.098147404368522e-06
-5.362604935918555e-06
-4.994561141961265e-06
-1.243320154606046e-06
3.350116400687823e-06
5.674263606584928e-06
4.15479929932712e-06
-1.7902745721995351e-07
-4.391585262683661e-06
-5.629387426364345e-06
-3.0539761364308185e-06
1.5901261154918424e-06
5.157114671501521e-06
5.230796130703093e-06
1.7612604211420397e-06
-2.901311301851597e-06
-5.598603598964827e-06
-4.503534676624123e-06
-3.5787823612915916e-07
4.030196428837678e-06
5.688311672078035e-06
3.4932995759681522e-06
-1.0679907546440003e-06
-4.905849492171701e-06
-5.420602202684079e-06
-2.263567615494823e-06
2.4267539585069563e-06
5.473249989457268e-06
4.812296361311779e-06
8.916073769191696e-07
-3.6330352861787897e-06
-5.6967460606965455e-06
-3.901616241167433e-06
5.363758322514051e-07
4.611039645448497e-06
5.562294625772219e-06
2.7457832234472684e-06
-1.9306565752289616e-06
-5.299315425574398e-06
-5.078343762818671e-06
-1.4174225475119591e-06
3.2036270651254476e-06
5.654615727989349e-06
4.275301884402094e-06

