# vtk DataFile Version 2.0
mesh vtk view
ASCII
DATASET UNSTRUCTURED_GRID
POINTS 441 double
0.0 0.0 0
19.999981517569978 -4.1259662099217716e-05 0
20.000018482430022 19.999958740337902 0
0.0 20.0 0
0.999997371295373 -1.819476559753052e-06 0
1.9999953668349508 -3.2583913973664227e-06 0
2.9999936179646753 -4.763139345535628e-06 0
3.9999920208435036 -6.345785646035443e-06 0
4.999990545663411 -8.03552086491942e-06 0
5.999989179488357 -9.83850625669187e-06 0
6.999987917227788 -1.1755416806445434e-05 0
7.999986757691088 -1.3782716168303285e-05 0
8.999985702250441 -1.5914049256737243e-05 0
9.999984754206812 -1.8140453127573037e-05 0
10.99998391843775 -2.045009483093697e-05 0
11.999983200987502 -2.2827595927750496e-05 0
12.999982608286931 -2.525309587938298e-05 0
13.999982145651046 -2.7701357278087335e-05 0
14.999981814738467 -3.0141538329504117e-05 0
15.99998160990413 -3.253868948845363e-05 0
16.999981513989116 -3.4858438227319244e-05 0
17.999981495233854 -3.707649449343566e-05 0
18.99998150935143 -3.9194583042258385e-05 0
19.999983578594772 0.9999587486338962 0
19.99998558526617 1.9999587635609595 0
19.999987482364975 2.999958744981868 0
19.9999892506217 3.9999586375867904 0
19.99999089166371 4.9999583797313525 0
19.999992417695555 5.99995789442892 0
19.999993851645883 6.9999570596287475 0
19.999995218837807 7.999955624052395 0
19.999996787137228 8.99995285190614 0
20.0 9.999946702774835 0
20.000003212862772 10.99995285190614 0
20.000004781162193 11.999955624052394 0
20.000006148354117 12.999957059628748 0
20.000007582304445 13.999957894428919 0
20.00000910833629 14.999958379731352 0
20.0000107493783 15.99995863758679 0
20.000012517635025 16.999958744981868 0
20.00001441473383 17.999958763560958 0
20.000016421405228 18.999958748633897 0
19.00001849064857 19.999960805416958 0
18.000018504766146 19.999962923505507 0
17.000018486010884 19.999965141561773 0
16.000018390095867 19.99996746131051 0
15.000018185261533 19.99996985846167 0
14.000017854348954 19.99997229864272 0
13.000017391713069 19.99997474690412 0
12.000016799012498 19.999977172404073 0
11.00001608156225 19.99997954990517 0
10.000015245793188 19.99998185954687 0
9.000014297749559 19.999984085950743 0
8.000013242308912 19.999986217283833 0
7.000012082772212 19.999988244583193 0
6.000010820511643 19.999990161493745 0
5.000009454336589 19.999991964479136 0
4.000007979156496 19.999993654214354 0
3.0000063820353247 19.999995236860656 0
2.000004633165049 19.9999967416086 0
1.000002628704627 19.99999818052344 0
0.0 19.0 0
0.0 18.0 0
0.0 17.0 0
0.0 16.0 0
0.0 15.0 0
0.0 14.0 0
0.0 13.0 0
0.0 12.0 0
0.0 11.0 0
0.0 10.0 0
0.0 9.0 0
0.0 8.0 0
0.0 7.0 0
0.0 6.0 0
0.0 5.0 0
0.0 4.0 0
0.0 3.0 0
0.0 2.0 0
0.0 1.0 0
19.000016414158754 18.999960797814243 0
19.000014411146186 17.999960766783417 0
19.000012532876053 16.99996068060548 0
19.0000107968897 15.999960505937564 0
19.00000920204442 14.999960203848326 0
19.000007736496027 13.999959728467436 0
19.000006381327925 12.999959028929236 0
19.00000506734143 11.999958083658496 0
19.000003565088267 10.999957142952969 0
19.0 9.999957580078592 0
18.999996434911733 8.999957142952969 0
18.99999493265857 7.999958083658496 0
18.999993618672075 6.9999590289292355 0
18.999992263503973 5.999959728467435 0
18.99999079795558 4.999960203848326 0
18.9999892031103 3.999960505937564 0
18.999987467123947 2.999960680605478 0
18.999985588853814 1.9999607667834196 0
18.999983585841246 0.9999607978142413 0
18.000016384321576 18.999962920587855 0
18.000014379810107 17.99996289518376 0
18.000012516241377 16.99996281759261 0
18.00001080064497 15.999962669645518 0
18.000009224425273 14.999962439340061 0
18.000007763166636 13.99996212657036 0
18.000006358768097 12.999961765681363 0
18.000004869304355 11.99996147939889 0
18.00000278602864 10.99996152255276 0
18.0 9.999961500569164 0
17.99999721397136 8.99996152255276 0
17.999995130695645 7.999961479398889 0
17.999993641231903 6.999961765681363 0
17.999992236833364 5.999962126570359 0
17.999990775574727 4.99996243934006 0
17.99998919935503 3.9999626696455195 0
17.999987483758623 2.999962817592609 0
17.999985620189893 1.9999628951837616 0
17.999983615678424 0.9999629205878563 0
17.000016302585642 18.999965158866786 0
17.000014284454824 17.99996516304172 0
17.00001242440051 16.999965130760913 0
17.00001071186335 15.999965054800272 0
17.00000912407528 14.999964941076202 0
17.000007616395667 13.999964813396307 0
17.000006103729923 12.999964722550361 0
17.000004409834286 11.99996474078855 0
17.000002368254925 10.999964822054912 0
17.0 9.999964890000646 0
16.999997631745075 8.999964822054913 0
16.999995590165714 7.999964740788551 0
16.999993896270077 6.999964722550361 0
16.999992383604333 5.999964813396307 0
16.99999087592472 4.999964941076202 0
16.99998928813665 3.9999650548002736 0
16.99998757559949 2.9999651307609128 0
16.999985715545176 1.9999651630417181 0
16.999983697414358 0.9999651588667849 0
16.000016145880213 18.99996750866995 0
16.000014106825205 17.999967551467794 0
16.000012240477535 16.999967574971436 0
16.000010518817763 15.999967578146599 0
16.00000890537712 14.999967572286963 0
16.000007344921087 13.999967580125205 0
16.00000575145726 12.999967629940446 0
16.000004022804507 11.999967724761014 0
16.000002090378732 10.999967831414683 0
16.0 9.999967875738944 0
15.999997909621268 8.999967831414683 0
15.999995977195493 7.999967724761013 0
15.999994248542741 6.999967629940446 0
15.999992655078914 5.999967580125205 0
15.999991094622883 4.999967572286963 0
15.999989481182237 3.9999675781465984 0
15.999987759522465 2.9999675749714356 0
15.999985893174797 1.9999675514677975 0
15.999983854119787 0.9999675086699513 0
15.00001589741259 18.999969941103938 0
15.000013839505622 17.999970023634358 0
15.000011964572499 16.999970098994172 0
15.000010232478193 15.999970168443728 0
15.00000859904329 14.999970240687848 0
15.00000700890513 13.999970328073333 0
15.000005396418347 12.999970436875332 0
15.00000369952192 11.999970557104028 0
15.000001890338904 10.999970655572659 0
15.0 9.999970694810992 0
14.999998109661096 8.999970655572659 0
14.99999630047808 7.999970557104028 0
14.999994603581653 6.999970436875332 0
14.99999299109487 5.999970328073332 0
14.99999140095671 4.999970240687848 0
14.999989767521807 3.999970168443729 0
14.999988035427501 2.9999700989941718 0
14.999986160494378 1.999970023634359 0
14.99998410258741 0.999969941103938 0
14.000015547298677 18.999972418346324 0
14.000013481244421 17.999972538063 0
14.00001160414377 16.99997265612652 0
14.000009870402769 15.999972773953349 0
14.00000823396286 14.999972895655853 0
14.00000664537776 13.999973024469856 0
14.000005054711957 12.999973157441419 0
14.000003422002385 11.9999732805141 0
14.000001731475962 10.999973370398811 0
14.0 9.999973403557185 0
13.999998268524038 8.999973370398813 0
13.999996577997615 7.999973280514099 0
13.999994945288043 6.999973157441419 0
13.99999335462224 5.999973024469857 0
13.99999176603714 4.999972895655852 0
13.999990129597231 3.9999727739533486 0
13.99998839585623 2.999972656126518 0
13.999986518755579 1.999972538062998 0
13.999984452701323 0.9999724183463208 0
13.000015091530333 18.999974903308384 0
13.00001303367066 17.99997505665773 0
13.000011167430591 16.999975208425663 0
13.000009446948187 15.999975359536059 0
13.000007827995812 14.99997551052946 0
13.000006267253355 13.999975659677062 0
13.000004725202478 12.999975800328007 0
13.000003172237584 11.999975919763372 0
13.000001595293485 10.999976001323082 0
13.0 9.999976030475047 0
12.999998404706515 8.999976001323082 0
12.999996827762416 7.999975919763372 0
12.999995274797522 6.9999758003280075 0
12.999993732746645 5.9999756596770615 0
12.999992172004188 4.99997551052946 0
12.999990553051813 3.999975359536058 0
12.999988832569409 2.999975208425664 0
12.99998696632934 1.9999750566577281 0
12.999984908469667 0.9999749033083815 0
12.000014530094036 18.999977364100282 0
12.000012499253737 17.999977547877076 0
12.000010660494402 16.999977726633368 0
12.000008970721588 15.99997790081905 0
12.00000738901131 14.999978069043955 0
12.000005877099351 13.999978227437039 0
12.000004401622018 12.999978368793363 0
12.000002937567183 11.99997848267737 0
12.000001471173512 10.999978557398183 0
12.0 9.99997858351534 0
11.999998528826488 8.999978557398183 0
11.999997062432817 7.99997848267737 0
11.999995598377982 6.999978368793362 0
11.999994122900649 5.999978227437038 0
11.99999261098869 4.999978069043956 0
11.999991029278412 3.9999779008190517 0
11.999989339505598 2.9999777266333676 0
11.999987500746263 1.9999775478770774 0
11.999985469905964 0.9999773641002794 0
11.000013865158632 18.999979775169354 0
11.000011880296192 17.999979986966274 0
11.000010086802027 16.99998018844937 0
11.000008445547628 15.999980379724091 0
11.000006919152383 14.999980558651924 0
11.00000547310568 13.999980720964196 0
11.000004077540607 12.999980860260681 0
11.000002709217917 11.999980968554011 0
11.000001352748829 10.99998103770648 0
11.0 9.999981061532019 0
10.999998647251171 8.99998103770648 0
10.999997290782083 7.999980968554011 0
10.999995922459393 6.999980860260681 0
10.99999452689432 5.999980720964195 0
10.999993080847617 4.999980558651925 0
10.999991554452372 3.999980379724092 0
10.999989913197973 2.9999801884493693 0
10.999988119703808 1.9999799869662749 0
10.999986134841368 0.9999797751693544 0
10.000013099706486 18.99998211675212 0
10.000011178586456 17.99998235493233 0
10.000009447859956 16.99998257671449 0
10.000007872359054 15.999982781880114 0
10.000006417777662 14.999982968230132 0
10.000005052184296 13.999983132028687 0
10.000003747586218 12.999983268312732 0
10.000002481218502 11.999983371424845 0
10.000001236041827 10.999983435956098 0
10.0 9.99998345795184 0
9.999998763958173 8.999983435956098 0
9.999997518781498 7.999983371424846 0
9.999996252413782 6.999983268312731 0
9.999994947815704 5.999983132028687 0
9.999993582222338 4.999982968230132 0
9.999992127640946 3.9999827818801132 0
9.999990552140044 2.9999825767144905 0
9.999988821413544 1.99998235493233 0
[...]
CELL_DATA 400
SCALARS CellEntityIds float 1
LOOKUP_TABLE default
0.24577183501926395
0.5461746610888453
2.3617650062062463
5.4141778783224925
10.00524204208453
16.623591011695996
26.307528874831437
41.41492408989747
69.36907635388076
124.76097587453474
124.76097587453526
69.36907635388134
41.41492408989878
26.307528874832286
16.623591011696142
10.005242042084744
5.414177878322793
2.3617650062067628
0.5461746610891909
0.24577183501932423
0.5523744530606102
2.8911555234147293
6.135359975840203
10.25003986188144
15.323289813486262
21.701632237236165
29.910166633306254
40.16248249461617
48.971376925875695
24.432571364007632
24.432571364007504
48.971376925875624
40.16248249461627
29.910166633306485
21.701632237236186
15.323289813486628
10.250039861881982
6.135359975840651
2.891155523415367
0.5523744530608192
2.234330808209988
5.802621830207503
9.671836236297356
14.149766099590193
19.196233060066785
24.727829290538107
30.309395015318138
34.17502468614464
29.026951492898068
17.40671713928878
17.40671713928834
29.026951492898032
34.175024686145015
30.30939501531811
24.72782929053825
19.196233060066675
14.149766099589964
9.671836236297327
5.802621830207283
2.2343308082101534
4.709857185080458
8.841732112704982
12.930006881088131
17.237308250512346
21.659014523649578
25.79433469428352
28.74451141722283
28.414784022544687
23.71706416326196
16.807485506542047
16.807485506541905
23.717064163261433
28.414784022544133
28.744511417222775
25.79433469428354
21.659014523649248
17.23730825051166
12.930006881087655
8.841732112704443
4.7098571850801125
7.806599212136524
11.726464969617453
15.678375710850121
19.53169642841702
23.08526729377362
25.85638195918912
26.99809110514334
25.691923664415665
21.884508024784402
17.819088203588247
17.819088203587864
21.884508024783834
25.691923664415
26.99809110514277
25.856381959188546
23.085267293772677
19.531696428416357
15.678375710849748
11.726464969617004
7.806599212135974
11.288512429394798
14.43433324682828
17.913307338473878
21.168516538060526
23.883204008417152
25.6258109634535
25.905526151464564
24.432826125851786
21.642343451990946
19.16521840987397
19.165218409873933
21.64234345199104
24.43282612585133
25.90552615146377
25.62581096345286
23.883204008416605
21.168516538060224
17.913307338473707
14.434333246827697
11.288512429394043
14.928731958806695
17.03691677322773
19.792294929894283
22.38012437686446
24.381159311176358
25.453533842397796
25.336451319095833
24.02934764431728
22.037570587622103
20.4713473345569
20.471347334556846
22.037570587622092
24.02934764431744
25.336451319096316
25.453533842397984
24.381159311176262
22.38012437686442
19.792294929894034
17.036916773227407
14.928731958806017
18.56449032915027
19.60096099544181
21.5022819500153
23.394311865750094
24.79796167715299
25.424184102904444
25.144229745866998
24.07001879969477
22.64966203652304
21.619597530478703
21.619597530478668
22.649662036522987
24.070018799694633
25.14422974586679
25.424184102904317
24.79796167715302
23.394311865749813
21.502281950014833
19.600960995441373
18.564490329149844
22.104821287830116
22.162485569705666
23.18610343262814
24.379984858311648
25.255437790350282
25.550280378964544
25.19233285826826
24.317375762295924
23.280834811913536
22.572671367215108
22.572671367215005
23.280834811913074
24.317375762295576
25.192332858267868
25.550280378964043
25.255437790349827
24.37998485831109
23.186103432627927
22.16248556970542
22.104821287829598
25.515457319254924
24.734657457455146
24.927253467721886
25.438755099991408
25.816390362636188
25.81649670224434
25.38291565810887
24.634173692655985
23.836555719828837
23.31942738773323
23.319427387733164
23.836555719828592
24.634173692655732
25.382915658108743
25.816496702244244
25.816390362635875
25.438755099990765
24.927253467721425
24.734657457454542
25.515457319254264
28.799389608845104
27.32222172231532
26.763188680868062
26.619462320792234
26.50452026325842
26.1988494644799
25.64772293789028
24.939856789862983
24.26774172633157
23.855133416800232
23.855133416800204
24.26774172633161
24.939856789862855
25.647722937889966
26.19884946447963
26.504520263257927
26.61946232079186
26.763188680867692
27.32222172231482
28.799389608844624
31.981905362823397
29.932030340532595
28.705070219687805
27.934987543576227
27.316816373261055
26.66709791474521
25.934499596869557
25.180760544143624
24.54218416566042
24.172016305726952
24.172016305726913
24.542184165660366
25.18076054414353
25.934499596869387
26.667097914744893
27.316816373260657
27.934987543576018
28.705070219687506
29.932030340532133
31.98190536282281
35.10277295902589
32.5793453155074
30.75313654630022
29.375030273107107
28.228787322543937
27.18075287117857
26.19319359990552
25.310560271578677
24.628943837663723
24.25378674956318
24.253786749563147
24.62894383766355
25.310560271578453
26.19319359990515
27.18075287117818
28.228787322543617
29.375030273106827
30.753136546299814
32.5793453155069
35.10277295902534
38.215831574805385
35.292575939151334
32.904941146212934
30.911134684522093
29.1929507971584
27.681353847486527
26.364028573407648
25.27767648803675
24.490051971092186
24.073070253984138
24.073070253984227
24.490051971092246
25.277676488036732
26.36402857340753
27.681353847486353
29.192950797158208
30.911134684521976
32.90494114621258
35.29257593915085
38.215831574804945
41.39769245428551
38.118504594619004
35.15503950392623
32.49017137176199
30.128735308644142
28.0822299125452
26.368565897373244
25.019179513192785
24.078331794952323
23.59271285578255
23.59271285578257
24.07833179495223
25.01917951319263
26.36856589737307
28.082229912545053
30.12873530864389
32.490171371761676
35.15503950392597
38.11850459461875
41.397692454285114
44.766703858188976
41.13015489575815
37.47800506063495
34.007773142856635
30.902359371427075
28.25810260456502
26.108334786546408
24.46313005836811
23.342422824057806
22.772546030829645
22.77254603082961
23.342422824057696
24.463130058367955
26.108334786546227
28.258102604564804
30.902359371426755
34.00777314285625
37.47800506063464
41.13015489575798
44.766703858188635
48.54965491569657
44.417755369560396
39.769360152885604
35.24908199770488
31.296913880441398
28.05281301298051
25.4782571910109
23.54290809542659
22.240306974381184
21.58255177861281
21.582551778612785
22.240306974381152
23.542908095426476
25.478257191010766
28.05281301298033
31.296913880441103
35.24908199770457
39.76936015288528
44.41775536956004
48.54965491569628
53.11240617630165
48.05468648565105
41.65696196140467
35.7603791792147
31.05958569488948
27.32118749615365
24.40370244578893
22.22460871168156
20.76057083644852
20.02116117508359
20.021161175083538
20.760570836448398
22.22460871168145
24.403702445788817
27.321187496153467
31.05958569488924
35.76037917921444
41.65696196140439
48.054686485650656
53.11240617630138
59.89401649846256
51.472024425134876
41.83259877983184
35.15255737701269
30.02684718061561
26.024048953462362
22.895950137735387
20.54237927640139
18.946333827833495
18.134112045410763
18.134112045410756
18.94633382783342
20.542379276401242
22.895950137735216
26.02404895346217
30.02684718061541
35.152557377012435
41.83259877983153
51.472024425134535
59.89401649846224
69.70932204079413
49.65375110119661
40.09644124177359
33.439502316729566
28.364441978480087
24.326364695850515
21.10473029467978
18.62729197005196
16.912628818895225
16.026560742752075
16.02656074275204
16.91262881889513
18.62729197005183
21.1047302946796
24.32636469585031
28.364441978479867
33.439502316729325
40.096441241773334
49.65375110119629
69.70932204079377
