# vtk DataFile Version 2.0
mesh vtk view
ASCII
DATASET UNSTRUCTURED_GRID
POINTS 161 double
-4914221993.739153 0.0 0
4000.0 -13105103939157.764 0
-4914413938.029016 -766277444.2446176 0
-61238155.77301022 -3058710800.32255 0
-122092397.94666511 -6867701603.249909 0
-182562701.5209641 -12183651388.042772 0
-242649066.49590534 -18996961689.717205 0
-302351492.87149006 -27298034043.28933 0
-361669980.64772123 -37077269983.77531 0
-420604529.82459795 -48325071046.190254 0
-479155140.40199804 -61031838765.545166 0
-537321812.3797933 -75187974676.84991 0
-595104545.7579871 -90783880315.11464 0
-652503340.536595 -107809957215.3498 0
-709518196.7156106 -126256606912.56528 0
-766149114.2950363 -146114230941.77164 0
-822396093.2748616 -167373230837.97827 0
-878259133.6550763 -190024008136.1954 0
-933738235.4356961 -214056964371.43314 0
-988833398.6167119 -239462501078.7012 0
-1043544623.1981497 -266231019793.011 0
-1097871909.1800294 -294352922049.3729 0
-1151815256.5623415 -323818609382.79846 0
-1205374665.3451123 -354618483328.2994 0
-1258550135.528378 -386742945420.8884 0
-1311341667.1121578 -420182397195.5783 0
-1363749260.0964541 -454927240187.38184 0
-1415772914.4812555 -490967875931.31226 0
-1467412630.2666035 -528294705962.3832 0
-1518668407.4524982 -566898131815.6088 0
-1569540246.038962 -606768555026.0032 0
-1620028146.0260265 -647896377128.5819 0
-1670132107.4137282 -690271999658.3611 0
-1719852130.2020307 -733885824150.3547 0
-1769188214.3908846 -778728252139.5765 0
-1818140359.980277 -824789685161.0406 0
-1866708566.9702845 -872060524749.7614 0
-1914892835.3607893 -920531172440.7499 0
-1962693165.151702 -970192029769.0166 0
-2010109556.3430345 -1021033498269.5726 0
-2057142008.9348388 -1073045979477.4292 0
-2103790522.9270916 -1126219874927.5977 0
-2150055098.319823 -1180545586155.0913 0
-2195935735.1131015 -1236013514694.924 0
-2241432433.3069515 -1292614062082.111 0
-2286545192.901465 -1350337629851.6638 0
-2331274013.895959 -1409174619538.5696 0
-2375618896.289741 -1469115432677.813 0
-2419579840.0829883 -1530150470804.382 0
-2463156845.2758017 -1592270135453.268 0
-2506349911.868369 -1655464828159.4653 0
-2549159039.86071 -1719724950457.969 0
-2591584229.2529244 -1785040903883.7788 0
-2633625480.0452013 -1851403089971.8972 0
-2675282792.2376456 -1918801910257.3308 0
-2716556165.8304524 -1987227766275.0903 0
-2757445600.8237257 -2056671059560.187 0
-2797951097.2173924 -2127122191647.6304 0
-2838072655.011487 -2198571564072.4321 0
-2877810274.206066 -2271009578369.6064 0
-2917163954.8013144 -2344426636074.1714 0
-2956133696.797378 -2418813138721.147 0
-2994719500.1941347 -2494159487845.5513 0
-3032921364.9916577 -2570456084982.4062 0
-3070739291.1903234 -2647693331666.7437 0
-3108173278.7902184 -2725861629433.596 0
-3145223327.7915816 -2804951379818.0024 0
-3181889438.194515 -2884952984355.0024 0
-3218171609.999095 -2965856844579.6387 0
-3254069843.2054253 -3047653362026.9536 0
-3289584137.8133645 -3130332938231.9863 0
-3324714493.8228292 -3213885974729.775 0
-3359460911.2338467 -3298302873055.359 0
-3393823390.0465207 -3383574034743.7803 0
-3427801930.2607293 -3469689861330.072 0
-3461396531.8761 -3556640754349.263 0
-3494607194.892788 -3644417115336.392 0
-3527433919.3111405 -3733009345826.5034 0
-3559876705.131511 -3822407847354.6514 0
-3591935552.3539815 -3912603021455.888 0
-3623610460.97869 -4003585269665.2715 0
-3654901431.0056953 -4095344993517.858 0
-3685808462.43495 -4187872594548.7036 0
-3716331555.2663455 -4281158474292.8574 0
-3746470709.4995685 -4375193034285.3667 0
-3776225925.1348653 -4469966676061.29 0
-3805597202.172876 -4565469801155.702 0
-3834584540.6139116 -4661692811103.679 0
-3863187940.4580035 -4758626107440.293 0
-3891407401.7049174 -4856260091700.615 0
-3919242924.354619 -4954585165419.715 0
-3946694508.4072485 -5053591730132.676 0
-3973762153.8635674 -5153270187374.597 0
-4000445860.7241716 -5253610938680.592 0
-4026745628.9896164 -5354604385585.787 0
-4052661458.6602507 -5456240929625.316 0
-4078193349.736299 -5558510972334.321 0
-4103341302.218501 -5661404915247.961 0
-4128105316.10717 -5764913159901.402 0
-4152485391.4026504 -5869026107829.82 0
-4176481528.105333 -5973734160568.395 0
-4200093726.2152014 -6079027719652.3125 0
-4223321985.7328568 -6184897186616.769 0
-4246166306.658259 -6291332962996.958 0
-4268626688.9915643 -6398325450328.08 0
-4290703132.7329054 -6505865050145.331 0
-4312395637.881742 -6613942163983.897 0
-4333704204.438161 -6722547193378.967 0
-4354628832.401893 -6831670539865.72 0
-4375169521.772893 -6941302604979.338 0
-4395326272.550973 -7051433790254.994 0
-4415099084.736065 -7162054497227.869 0
-4434487958.32846 -7273155127433.145 0
-4453492893.328199 -7384726082406.006 0
-4472113889.73518 -7496757763681.641 0
-4490350947.550506 -7609240572795.27 0
-4508204066.774633 -7722164911282.11 0
-4525673247.407242 -7835521180677.37 0
-4542758489.448245 -7949299782516.26 0
-4559459792.897783 -8063491118334.0 0
-4575777157.756228 -8178085589665.816 0
-4591710584.024099 -8293073598046.957 0
-4607260071.702224 -8408445545012.677 0
-4622425620.790225 -8524191832098.22 0
-4637207231.288247 -8640302860838.843 0
-4651604903.196738 -8756769032769.808 0
-4665618636.515412 -8873580749426.363 0
-4679248431.244135 -8990728412343.77 0
-4692494287.383455 -9108202423057.293 0
-4705356204.933561 -9225993183102.21 0
-4717834183.895185 -9344091094013.818 0
-4729928224.268777 -9462486557327.422 0
-4741638326.05506 -9581169974578.342 0
-4752964489.254239 -9700131747301.912 0
-4763906713.866907 -9819362277033.47 0
-4774464999.89361 -9938851965308.38 0
-4784639347.33505 -10058591213662.01 0
-4794429756.191011 -10178570423629.729 0
-4803836226.4625225 -10298779996746.932 0
-4812858758.149593 -10419210334549.006 0
-4821497351.252338 -10539851838571.355 0
-4829752005.771792 -10660694910349.4 0
-4837622721.708064 -10781729951418.564 0
-4845109499.060958 -10902947363314.252 0
-4852212337.830222 -11024337547571.885 0
-4858931238.016575 -11145890905726.885 0
-4865266199.619653 -11267597839314.672 0
-4871217222.63938 -11389448749870.658 0
-4876784307.075671 -11511434038930.266 0
-4881967452.929223 -11633544108028.924 0
-4886766660.199489 -11755769358702.053 0
-4891181928.887223 -11878100192485.094 0
-4895213258.992434 -12000527010913.482 0
-4898860650.514891 -12123040215522.652 0
-4902124103.455052 -12245630207848.05 0
-4905003617.812985 -12368287389425.12 0
-4907499193.588845 -12491002161789.303 0
-4909610830.782189 -12613764926476.041 0
-4911338529.3930435 -12736566085020.773 0
-4912682289.421874 -12859396038958.965 0
-4913642110.8701725 -12982245189826.121 0

CELLS 160 480
2 0 2
2 2 3
2 3 4
2 4 5
2 5 6
2 6 7
2 7 8
2 8 9
2 9 10
2 10 11
2 11 12
2 12 13
2 13 14
2 14 15
2 15 16
2 16 17
2 17 18
2 18 19
2 19 20
2 20 21
2 21 22
2 22 23
2 23 24
2 24 25
2 25 26
2 26 27
2 27 28
2 28 29
2 29 30
2 30 31
2 31 32
2 32 33
2 33 34
2 34 35
2 35 36
2 36 37
2 37 38
2 38 39
2 39 40
2 40 41
2 41 42
2 42 43
2 43 44
2 44 45
2 45 46
2 46 47
2 47 48
2 48 49
2 49 50
2 50 51
2 51 52
2 52 53
2 53 54
2 54 55
2 55 56
2 56 57
2 57 58
2 58 59
2 59 60
2 60 61
2 61 62
2 62 63
2 63 64
2 64 65
2 65 66
2 66 67
2 67 68
2 68 69
2 69 70
2 70 71
2 71 72
2 72 73
2 73 74
2 74 75
2 75 76
2 76 77
2 77 78
2 78 79
2 79 80
2 80 81
2 81 82
2 82 83
2 83 84
2 84 85
2 85 86
2 86 87
2 87 88
2 88 89
2 89 90
2 90 91
2 91 92
2 92 93
2 93 94
2 94 95
2 95 96
2 96 97
2 97 98
2 98 99
2 99 100
2 100 101
2 101 102
2 102 103
2 103 104
2 104 105
2 105 106
2 106 107
2 107 108
2 108 109
2 109 110
2 110 111
2 111 112
2 112 113
2 113 114
2 114 115
2 115 116
2 116 117
2 117 118
2 118 119
2 119 120
2 120 121
2 121 122
2 122 123
2 123 124
2 124 125
2 125 126
2 126 127
2 127 128
2 128 129
2 129 130
2 130 131
2 131 132
2 132 133
2 133 134
2 134 135
2 135 136
2 136 137
2 137 138
2 138 139
2 139 140
2 140 141
2 141 142
2 142 143
2 143 144
2 144 145
2 145 146
2 146 147
2 147 148
2 148 149
2 149 150
2 150 151
2 151 152
2 152 153
2 153 154
2 154 155
2 155 156
2 156 157
2 157 158
2 158 159
2 159 160
2 160 1

CELL_TYPES 160
3
3
3
3
3
3
3
3
3
3
3
3
3
3
3
3
3
3
3
3
3
3
3
3
3
3
3
3
3
3
3
3
3
3
3
3
3
3
3
3
3
3
3
3
3
3
3
3
3
3
3
3
3
3
3
3
3
3
3
3
3
3
3
3
3
3
3
3
3
3
3
3
3
3
3
3
3
3
3
3
3
3
3
3
3
3
3
3
3
3
3
3
3
3
3
3
3
3
3
3
3
3
3
3
3
3
3
3
3
3
3
3
3
3
3
3
3
3
3
3
3
3
3
3
3
3
3
3
3
3
3
3
3
3
3
3
3
3
3
3
3
3
3
3
3
3
3
3
3
3
3
3
3
3
3
3
3
3
3
3

CELL_DATA 160
SCALARS CellEntityIds float 1
LOOKUP_TABLE default
47.846174115487536
47.54619809818709
47.24622208088621
46.94624606358394
46.646270046282524
46.34629402898341
46.046318011683674
45.74634199428847
45.44636597679311
45.1463899593004
44.84641394181974
44.54643792433401
44.246461906851046
43.946485889358335
43.646509871859244
43.34653385437093
43.04655783687612
42.746581819402714
42.446605801942866
42.14662978447759
41.84665376703102
41.54667774961373
41.246701732210795
40.94672571481044
40.64674969740195
40.34677368002369
40.04679766264705
39.746821645287355
39.44684562795286
39.14686961064737
38.8468935933118
38.54691757593855
38.24694155855473
37.94696554123135
37.646989523817176
37.34701350633035
37.04703748885437
36.74706147141878
36.44708545396503
36.14710943653621
35.847133419158354
35.547157401800824
35.24718138451458
34.94720536669573
34.64722934833531
34.347253330113126
34.04727731197009
33.7473012939737
33.44732527599275
33.14734925808933
32.847373240334164
32.5473972226614
32.247421205139894
31.947445187700502
31.647469170203927
31.34749315273391
31.047517135308347
30.747541118026984
30.447565100860274
30.14758908359734
29.847613066392142
29.54763704948049
29.2476610326366
28.94768501598055
28.647708999402834
28.347732982884747
28.047756966448517
27.74778094990116
27.44780493328983
27.14782891669856
26.84785290018861
26.547876883583243
26.247900866687313
25.947924849912273
25.647948833408822
25.3479728171813
25.04799680101775
24.74802078496262
24.44804476895248
24.148068752906024
23.848092736774458
23.548116720397857
23.24814070421479
22.948164688530458
22.64818867309007
22.348212657673532
22.048236642074848
21.74826062644852
21.448284610931694
21.148308596010637
20.848332581554704
20.54835656753191
20.248380553782876
19.94840454020894
19.648428527212342
19.348452514461318
19.048476501979174
18.748500489801692
18.448524477612285
18.148548465892336
17.848572454140943
17.548596442511524
17.24862043098565
16.948644419037475
16.64866840715869
16.34869239506686
16.0487163829425
15.748740370669069
15.448764358344134
15.14878834624634
14.848812334179447
14.548836322033406
14.248860310749848
13.94888429982191
13.648908288644602
13.348932277399534
13.04895626626397
12.748980255419514
12.449004244978923
12.149028235186686
11.849052225098461
11.549076215124076
11.249100205500433
10.949124195651816
10.649148185698575
10.349172176174676
10.049196166797689
9.749220157992617
9.449244149539368
9.149268141650447
8.84929213392253
8.549316126657027
8.249340119819239
7.949364113528975
7.649388107070659
7.349412101415736
7.049436095768404
6.74946009021106
6.449484085461446
6.149508080798027
5.849532075979567
5.549556070967034
5.24958006651395
4.949604061777889
4.649628056982739
4.349652052118742
4.049676047801183
3.749700043055365
3.449724038899894
3.1497480347503863
2.849772030421444
2.5497960264497452
2.2498200225300886
1.9498440187329467
1.6498680145899443
1.3498920104659156
1.049916006707805
0.7499400041141276
0.4499640024691271
0.14998800097970957
