# vtk DataFile Version 2.0
mesh vtk view
ASCII
DATASET UNSTRUCTURED_GRID
POINTS 3041 double
0.0 6.0 0
0.012809964389657277 12.004738939043373 0
12.0 6.0 0
12.034672765469361 11.980366285002885 0
17.621090128434577 -0.22273517367256915 0
99.30685573900733 -11.188786844047128 0
100.3234295011967 -5.192088509879644 0
17.9917667992148 5.7907138994630705 0
0.5 6.0 0
1.0 6.0 0
1.5 6.0 0
2.0 6.0 0
2.5 6.0 0
3.0 6.0 0
3.5 6.0 0
4.0 6.0 0
4.5 6.0 0
5.0 6.0 0
5.5 6.0 0
6.0 6.0 0
6.5 6.0 0
7.0 6.0 0
7.5 6.0 0
8.0 6.0 0
8.5 6.0 0
9.0 6.0 0
9.5 6.0 0
10.0 6.0 0
10.5 6.0 0
11.0 6.0 0
11.5 6.0 0
12.331065161854989 5.643734568315777 0
12.666871406898824 5.287538352009106 0
13.002951977944443 4.929587642947583 0
13.338376723065574 4.570522310140089 0
13.67275161949434 4.210207963575724 0
14.006071832355467 3.8485924577588935 0
14.338053941914989 3.4855571222330517 0
14.668857459224267 3.120973924107599 0
14.998560788720225 2.75488456597122 0
15.327447793738095 2.387194328432506 0
15.655421513918828 2.01806397467861 0
15.982967706581343 1.6474330798122212 0
16.31029604066727 1.2754718610573572 0
16.63740823171391 0.9023168751427881 0
16.964630343271875 0.5280759249975706 0
17.292349166941072 0.15294774531662092 0
18.120069315371897 -0.2548619916547893 0
18.618060344662684 -0.2866742319436884 0
19.11535185993283 -0.3188376584556323 0
19.61216772405583 -0.35161814262767044 0
20.108687398500187 -0.38512488047549587 0
20.605057456218407 -0.41937986467351246 0
21.101337042062045 -0.45436646881984755 0
21.597582478053088 -0.49007395619644273 0
22.09382227302363 -0.5264806272504665 0
22.59007736662155 -0.5635653551155789 0
23.086358519816603 -0.6013078821388301 0
23.582670573351407 -0.6396910092117726 0
24.079015026836064 -0.6787006556568499 0
24.575391623566635 -0.7183254747290564 0
25.071799337880204 -0.7585563525753497 0
25.568237069990985 -0.7993859291921069 0
26.064704465363878 -0.840808059689885 0
26.5612036974872 -0.8828148237656545 0
27.057724478816926 -0.9254006045988956 0
27.55426560262903 -0.9685640568923488 0
28.050827469946416 -1.0123024213628395 0
28.547411017599007 -1.0566146481543852 0
29.044035761837897 -1.1014952766287198 0
29.540682733287493 -1.1469327643287344 0
30.037358930533046 -1.1929243429350214 0
30.534052025249792 -1.2394660658756098 0
31.03076323426582 -1.2865577564178783 0
31.527494037492602 -1.3341967778965242 0
32.02424576062257 -1.3823820244219398 0
32.52103755907965 -1.431107848229171 0
33.01785019325132 -1.480362821695612 0
33.51468774478603 -1.5301465885505996 0
34.01154794609181 -1.580456030409892 0
34.50843569461347 -1.6312857120043442 0
35.00534282197778 -1.6826309631282583 0
35.5022697913341 -1.7344907028552288 0
35.999219201487634 -1.7868614048154816 0
36.49619378279101 -1.8397394646202383 0
36.99319375927856 -1.8931185546376956 0
37.49021697039839 -1.9469968151299277 0
37.987259843262414 -2.0013708633325553 0
38.48434424481163 -2.0562352026836717 0
38.981444522204725 -2.111579296654514 0
39.478565007336265 -2.1674042541953966 0
39.97570335595287 -2.2237084479160587 0
40.4728621459557 -2.280491018384342 0
40.970059757651825 -2.337746316310328 0
41.467278421622105 -2.3954634093739293 0
41.96452174857205 -2.4536413712313947 0
42.46178674222698 -2.5122768521973238 0
42.959075014641975 -2.5713666019872052 0
43.45638704856323 -2.6309065357319223 0
43.95372297332761 -2.690892561565884 0
44.451082805715615 -2.7513206417363913 0
44.948466545546474 -2.81218678238987 0
45.445874198926205 -2.8734869907045377 0
45.94330576563516 -2.9352172605763127 0
46.44076123084953 -2.9973736022797173 0
46.93824059016617 -3.059952048343411 0
47.435743852378565 -3.122948618881681 0
47.933271019580076 -3.186359313065998 0
48.43082207722427 -3.2501801457124864 0
48.928397021595906 -3.3144071552949006 0
49.42599586291275 -3.3790363669325205 0
49.92361860379485 -3.4440637847796927 0
50.42126523005237 -3.509485435298409 0
50.918935747499 -3.5752973830658408 0
51.4166302121943 -3.641495711849591 0
51.91434881981314 -3.7080765456202354 0
52.41209229271717 -3.7750360019635636 0
52.909863115953605 -3.8423682265561454 0
53.40765405736935 -3.9100687698421575 0
53.905464971882324 -3.978136030065242 0
54.40329701834811 -4.0465671283744165 0
54.90115179697135 -4.115360563753991 0
55.39904632511017 -4.184508702997135 0
55.896958512881326 -4.254002169493242 0
56.394891662948176 -4.323841071685425 0
56.892843980848674 -4.394023304193508 0
57.390817229433466 -4.464547968974709 0
57.88882619150661 -4.535408875411234 0
58.386857021596896 -4.606597511229869 0
58.88491256912574 -4.678111873175852 0
59.382991057574 -4.749948710178942 0
59.88109597734989 -4.8221029665557635 0
60.37922130260197 -4.894570230199084 0
60.87736704622483 -4.967348477029307 0
61.37553433595891 -5.040434548494233 0
61.87372435479344 -5.113827069943324 0
62.37195215825459 -5.1875181397088115 0
62.87019853924562 -5.261499812584376 0
63.368466251735185 -5.335771254446056 0
63.866753949951104 -5.410330373040092 0
64.36506389552177 -5.485175900227848 0
64.86341074542267 -5.560300119250638 0
65.36177642614778 -5.63569532893703 0
65.86016349357594 -5.711360388666773 0
66.35857043796292 -5.787293131749226 0
66.85699882958819 -5.863492408235935 0
67.35546282870081 -5.9399514193454666 0
67.85394774573354 -6.01666293752226 0
68.35245985063418 -6.093623640192218 0
68.85099171007055 -6.170829528277993 0
69.349544127208 -6.248278660057409 0
69.84811815876724 -6.325967733505296 0
70.34671429145232 -6.403895081968542 0
70.84534490099773 -6.482053855049233 0
71.34399607730978 -6.560437352192527 0
71.84267205814439 -6.639043507169091 0
72.34137134164583 -6.717868630362128 0
72.8400963496817 -6.796907829333341 0
73.33884264123375 -6.8761569110184695 0
73.8376102432711 -6.955613300710575 0
74.33639988539777 -7.035273606744387 0
74.83521192488224 -7.115135922099478 0
75.33405700432738 -7.195193581891809 0
75.83292310338705 -7.275440514083653 0
76.33181386500848 -7.355874267931063 0
76.83072798041286 -7.436491179934678 0
77.32966752298233 -7.517286484434586 0
77.82862876502395 -7.598256151803789 0
78.32761206518596 -7.679397450363779 0
78.82661882027732 -7.760706565995103 0
79.32565012552745 -7.8421796414238125 0
79.82470597378916 -7.923811363324896 0
80.32378526441859 -8.005598942323052 0
80.82288612972961 -8.087539063598632 0
81.32201717170241 -8.169626370451239 0
81.82116976909748 -8.251855927181532 0
82.3203468279213 -8.334224604088709 0
82.81954729478613 -8.416728686647522 0
83.31877258400897 -8.499363783508825 0
83.81802121362907 -8.582125240372832 0
84.31729088308931 -8.665010289293415 0
84.81658361922695 -8.748015591846908 0
85.31589956241267 -8.831138255017382 0
85.81524486143664 -8.914372062720307 0
86.31461234431222 -8.997712533474283 0
86.81400411976747 -9.081156209494642 0
87.31341934252009 -9.164699447040245 0
87.81285905461618 -9.248337962054556 0
88.3123221871847 -9.332067374709125 0
88.81180721727793 -9.415884769842156 0
89.31131605926156 -9.499786428668994 0
89.81084923612961 -9.583768235969897 0
90.31040670018552 -9.667825658061941 0
90.80998830710814 -9.75195534320849 0
91.30959363453616 -9.836152919309471 0
91.80922300795473 -9.920414505684528 0
92.30887681438497 -10.004736760021474 0
92.80855498980789 -10.089115333151982 0
93.30825802359182 -10.17354624656829 0
93.80798663045296 -10.258025994650275 0
94.3077415190295 -10.342550586561536 0
94.80752603914512 -10.42711291203452 0
95.30733848851484 -10.511709362195598 0
95.80718107492956 -10.596333132487176 0
96.30705523821466 -10.680977489640894 0
96.80696217761424 -10.765633411389809 0
97.3069002975116 -10.850289357408442 0
97.80686605003754 -10.934938107483916 0
98.30685385209487 -11.019572082061615 0
98.80685328047058 -11.104186603471906 0
99.39145353262187 -10.688784428478543 0
99.47603603040973 -10.188784354532661 0
99.56059841861455 -9.688797360599313 0
99.64514182765929 -9.188834160457489 0
99.72967293427088 -8.68890597944847 0
99.81420303676839 -8.189021312794646 0
99.8987512495225 -7.689189991993906 0
99.98332294521914 -7.189441134746977 0
100.06795272642869 -6.689771192983326 0
100.15270230806875 -6.1902261671669425 0
100.23770140704866 -5.690952185574538 0
99.82312095416003 -5.105459497531738 0
99.3227183258744 -5.020173773054552 0
98.82238488650887 -4.935202691370906 0
98.32215769743647 -4.850376847481408 0
97.82195866853775 -4.765633099839027 0
97.32175799329362 -4.680932072663902 0
96.82155483243045 -4.596270974770437 0
96.32135017132691 -4.511646322733823 0
95.8211240246051 -4.427053096415753 0
95.3208878694116 -4.34250309257361 0
94.8206311984405 -4.257988426951728 0
94.32034776296864 -4.173515406264022 0
93.82004881010057 -4.08909527307682 0
93.31972538908198 -4.004721405028453 0
92.81937205068117 -3.920401783934505 0
92.31899527743185 -3.8361459462587533 0
91.81860722659569 -3.751950912436115 0
91.31819226083046 -3.6678243292970976 0
90.81774956765943 -3.5837675724308014 0
90.31728500856494 -3.4997874497924624 0
89.81679778978044 -3.4158863438354174 0
89.31628218230489 -3.332067507069322 0
88.81574535966253 -3.248337829658519 0
88.315186255132 -3.1646992200739827 0
87.8145982059029 -3.0811549974057186 0
87.31398926514493 -2.9977122068136506 0
86.81335855012702 -2.9143725591263046 0
86.31270169565128 -2.8311389785310084 0
85.81202075352066 -2.7480171755269662 0
85.31131313551532 -2.6650112733039215 0
84.81058483282295 -2.5821260754078903 0
84.30983492230932 -2.4993637797865205 0
83.80905815645139 -2.41672750543138 0
83.30825763889665 -2.334223349829914 0
82.80743412682595 -2.2518545103352405 0
82.30658611812326 -2.16962446432818 0
81.80571075166581 -2.0875383574546067 0
81.30481527146057 -2.00560094287645 0
80.8038985780744 -1.9238141593811298 0
80.3029544492013 -1.8421811397215642 0
79.80198658613372 -1.7607082513170802 0
79.30099590509035 -1.6793985457682767 0
78.79998064649935 -1.5982554242196372 0
78.29893752784554 -1.517284338037137 0
77.79787496383055 -1.4364899347127853 0
77.29679174701138 -1.355873860824091 0
76.79568100391867 -1.2754389586175972 0
76.29454605325829 -1.1951915104744524 0
[...]
CELL_DATA 5646
SCALARS CellEntityIds float 1
LOOKUP_TABLE default
224.47616955014007
10.370602200036288
11.970240041512936
3.8599702733642056
13.605122986109876
135.89549775710606
15.203981702885953
16.35110901863537
17.951890148943587
19.050503530635314
20.218223856450557
9.245836702325047
21.815442556369444
4.017615037664229
507.7391523300427
22.91919512153781
7.253421394789009
24.10263895708574
13.70132907730798
25.69055199314849
7.9116320059689755
1.838758070775752
26.88470655922015
15.766769249945131
16.033332318968963
17.806134157042884
28.47299544314245
18.52264032336614
29.67704828765109
21.007177107279198
21.242233999330328
31.353308752576904
25.121964665704418
33.033995035626454
14.327224859192615
26.059910853326183
16.814983929361034
34.625343330700844
30.885896639598194
35.75163173119795
19.2913077582554
36.87346925859314
21.75770162045689
30.886915852380444
23.491547766549708
38.10542482385147
36.64768754704242
25.866028777980876
27.61207315182873
34.33735654491391
39.68101909650753
29.252090833707296
2.0035191988698795
40.76732621919222
40.922732720862534
213.47722719577627
37.83451715469717
31.616003920555748
33.382068500897894
42.500000454719164
44.865716055011774
35.01941022678072
39.90439279326993
43.74916117448023
47.34675778064507
41.931495276297646
45.33251735180531
37.35860561077221
39.14635562281369
49.843528548904345
1.516258701874275
7.446822883605625
46.47014807021273
48.90258516763352
41.46760371223053
47.602927757617934
43.26450395963943
48.86492386384942
2.3254819475566486
48.17788695827212
45.56913630369421
57.246530715655986
50.43565889842007
48.042498451784446
51.704709081242605
51.64562709717414
61.36912131379733
50.52404085499678
52.35069104444691
12.427226337294092
53.2863402743913
53.979346200251705
141.8870646617995
221.28850751303065
55.10964679596517
14.476210452423127
55.62125023070858
54.430347618813066
65.49099304725938
55.57741039075787
16.523774614901782
57.91299845096015
59.75756572511074
56.72186060782488
131.26142666033348
18.558952526253073
57.86633987355078
61.37723064944351
62.02576074933071
63.87802388059299
19.282510505537388
59.0119528327853
72.90750955734536
19.989810643903645
281.5755434074366
21.969299467186136
13.185481667673066
80.46788892617617
60.15871377155408
66.14821043835994
64.84911791013741
68.01785673944443
61.30651279544724
22.68901248071021
77.03203354812968
15.235737410126642
23.39325072453689
69.64471923672578
62.45559758403981
24.089639391766205
24.80267049999813
71.28557911899463
17.27885334136649
26.768811211044458
63.60621034445701
157.96491130934754
64.75938376402344
169.32225709606777
27.493603078005517
73.54681822821415
28.201822990829
75.42333303753385
20.710004170532134
65.90544095265118
28.903286665436795
29.625211303728438
31.590809563457864
10.22485402377627
67.2048643872235
55.55047084471751
77.6712630567078
79.56280193251563
32.33470457239019
81.19700593538153
33.071032448044406
68.92774447261304
25.520352984150044
116.54546991579124
11.737931426105213
35.03490625441744
82.84396232744781
84.49339750641917
70.51533697285504
35.78482239950306
36.53200340437304
86.14305924278247
71.82590857300657
38.54782818913821
87.79283220247163
30.342100285430302
2.9492051168843076
2.8833193817826896
169.07422888473036
2.230511149944785
40.6163019683188
89.44257419638176
73.4185680578981
135.58883550898068
91.09255672765981
158.64425397250028
74.5846878896915
42.60781606992936
99.26611115617708
83.79178019646474
33.79049715687613
92.74314955504472
75.74467289151703
77.34796723286581
94.39381635968748
101.79283178255865
43.3433347281919
85.82234199064074
44.05239881048506
77.05828582306744
96.03360075512482
12.426413757686241
44.748870273435
37.26276529428701
45.45938352515065
206.54002278120743
97.67175409376163
46.173889037585454
14.504246924909415
7.650943491727079
46.92374134075626
78.65050906262972
105.90257644763216
39.324205251311035
48.856710564093035
89.32739736006496
16.57102461838802
79.80625864968921
41.37950196622323
4.080370928174869
99.89674641457694
11.610620790281882
65.56884243856149
13.041237610744469
18.561228509179923
49.622309442621585
81.11417201853558
50.38945527611669
52.321406571859036
15.117190492694046
102.39001282940075
19.264213574494192
20.00886171382427
104.30014717467012
21.99145392253642
17.179168450712865
82.6619054756202
53.090264862278076
113.32971588807557
53.862050900765524
23.375748569905358
22.677541136509706
95.65175978300378
55.76910153346504
83.95083604595044
106.514456035266
108.44406441876727
24.098449286390707
24.84491149164398
20.636674444094034
47.63656221540107
26.81190953262064
152.0853050823249
85.06919428342869
110.06582756587449
56.51202906000643
57.226857736518
27.50288529242978
28.204573629969687
111.70515353591182
86.2519228170877
57.92847038240312
119.01443244825016
58.644462754335876
51.105543782734614
29.685232696164242
28.931527200584995
25.472786571913975
0.680538083866583
100.49466643964156
87.72114905420571
59.368579902449746
31.650444332142918
60.13613918851245
62.0485910518891
148.74758963334395
113.94064157792992
90.04727862994831
115.86043193792658
32.37300148858827
33.14185435140562
54.57581641698836
35.10416929611656
333.33203519469816
30.314811664505527
179.50571378380639
117.45980986563654
94.59961064140722
62.82677813515707
73.05316244676891
63.6123649403325
99.27929761491764
115.0252015468456
65.50357299671931
36.61161123932057
35.83281223251437
160.6138480396396
38.685091586353316
33.77549119827871
119.55681031394144
121.25743441696068
40.757617075063536
66.25060561393826
66.96669355057844
11.561877945360722
37.25751739680471
122.49578445090273
67.66551734500115
42.6940660213963
60.84602338040882
68.36772103733776
123.58449722144263
39.322466819567104
69.06253489694986
69.76366990842983
43.39688299410207
44.09904735143545
124.61341746344662
70.45828548465417
41.38473104034912
45.5076753471252
44.80617311542501
71.16000786059767
64.32401036788022
71.85457588356094
47.022514236096534
46.24563236041612
126.10584063605461
72.55681826405703
140.20938634776067
5.203675938006177
48.95323003582393
129.42840101341233
73.25167035850706
129.64036050070177
73.95419583774704
74.64936835478574
49.69864123183466
50.49383707374975
160.4947038932962
75.35217758171942
47.65787114401092
52.42273761367582
76.04778217811813
1.4890931533298466
76.7510208330071
53.17168871406856
53.97068176625935
77.44718601984435
78.15110288295179
51.13393110594091
55.87388604181743
2.395126545613974
78.84843805309684
79.55459830455278
57.29361791157541
56.58576166136881
30.138173590905176
80.2577714148913
42.85186426734108
54.610677436451205
80.98059466587972
58.004924522727165
58.711855672580676
81.71869450793835
82.51654173385855
60.24934670897928
59.45806071093932
84.52503533787942
62.15915154867163
86.50569741067783
205.8983967356721
63.72872950585277
62.91836725478312
60.88902725672035
65.61588524512129
89.08163165633708
87.30329161034895
88.11595566359827
66.33318808456447
67.04254448361127
89.98952548245929
64.37197444467316
67.75057301346345
68.44420183360262
3.194994588774883
83.24213411636765
69.84067946205914
69.14796431323991
147.99170244442098
90.74728777782235
106.07429220216008
71.23755863677678
70.54433230392061
91.47356275732945
92.96437681583762
85.29514219367837
92.18521914908688
72.63494464986906
71.94125495172064
92.91181712996563
74.03284211832566
73.33885456036083
93.65347077274332
94.4532025525633
96.32046580984996
74.73698645481184
75.43128059094052
160.22371024635274
88.82468941433685
76.13575527494385
76.83048768251241
0.2650946605595198
78.23081679962522
77.53542249605208
97.08294272606659
243.87947431936854
97.82166930569225
79.63423066730687
78.9367480509994
98.56111276297935
80.34573459873843
81.05968969475474
99.35075213126447
101.14791899623674
82.63366087640733
81.81759103532812
84.68847428243535
95.15649340411473
101.89968363305827
86.61995029091872
102.67475353902813
83.29913382322688
74.29528678366732
103.36767763144728
6.220229471674133
103.96327056088329
85.35143774512385
88.23167966404522
87.40042446405731
104.56019785307535
90.10112994212835
105.13434343724992
171.86747640576152
105.78202524617765
100.03268800592247
106.50482066810278
88.88451254181203
90.83244134461731
91.5520467883791
107.48885910173726
108.80596803234204
92.98890462549411
92.2711333947736
110.88135790431983
113.90793974948494
93.74862781630233
94.56339951829621
96.42674640067959
119.14979579927453
173.74450720864488
4.969897126044385
95.21410044275059
97.8951281370095
97.16323924916374
86.41647737892691
98.65136534390103
99.45348964215599
101.24313609956076
100.0859739073247
11.054963985796833
102.76604109686609
101.97817874997104
174.12186945243866
5.684493929850709
187.18771522214223
121.62941293554785
7.710126374825938
103.41631748761594
104.04278261665735
6.565413199469768
7.59537389662721
99.16148288507533
105.22753215750703
104.61446775115876
176.17763636067392
9.15641104658878
10.452200658394068
105.85867928057127
106.64947620308446
109.06198728857072
107.61935777990152
127.39390834887676
119.21029086536966
12.592619084186081
111.066593884614
114.25769706833381
85.72940337165512
82.1948509959984
187.21525927215106
224.80755132304134
49.323254857615545
31.724682882642874
208.74878687229477
52.39725181444862
56.645312919548395
43.868552915006944
51.03682059068955
5.117430255371411
68.01996204408593
11.825082456091371
115.10458063626491
8.144664974591844
13.618120413210796
74.92522900473514
9.971196438110255
19.152727665652318
9.976114533107285
3.5379947166051897
88.39940251996147
4.724538813778199
12.330275031552219
7.822749242082328
24.804017852615804
14.467483102055633
10.123576182053608
48.90925228207913
26.54887072653681
134.7493005362931
13.813562765708012
15.85510043567581
20.90394334896454
67.58514953721303
32.08138504016023
64.38782388291403
17.883436366484123
21.294993866216984
27.43422723929598
10.305420493195138
37.608374354706044
29.609128110919535
60.18516139936489
6.34759509612609
41.55343334821205
13.108631865128428
26.08691294027632
8.980597158138313
41.93233765353191
6.849619418932998
0.6826844934819818
35.99306788135558
40.75997075429661
44.99422785576903
58.88734041109488
55.44425805450788
9.807304900751918
30.893812667080162
48.00927409420654
11.360095638495961
110.31740482995993
52.590759816870175
75.27199979358348
42.44882313882932
12.9772542253259
34.33177458023451
58.162636430861575
14.60580112766273
53.53484630005615
47.46939595363967
37.81360323346919
17.33855091832735
58.69747670129148
39.87739416886719
15.760835101495768
56.529308974603886
4.608932019812534
51.071787696270405
41.90244344858484
21.185613206696065
18.507858177763417
24.65823712766647
54.64693169481543
4.289985849813794
19.6157750874864
11.613186090652516
7.863995559670191
25.050394523764417
22.375470663712747
23.48872917569127
61.077210859110565
48.13511299432707
61.517457462139106
3.0623253697227173
27.82253778199937
13.380976289953454
26.260064009732407
61.202299678529656
64.66692977979895
9.747115832251296
7.23403124008997
51.59562293193898
5.923073198251112
30.603164982192297
10.47554039177995
5.1528802171909005
26.384645110361397
59.72345585549726
29.045514689987527
32.274991124417745
69.63980051815733
55.05252051873843
33.94723501307488
93.058830000413
74.11678724736106
3.933729995230132
28.625421076973236
77.35655600469998
35.19795074681007
38.99641721321523
78.88822476592902
36.32924512120956
10.836864506033448
61.312113400399625
37.45672792234352
12.465812666952445
18.908082561889277
12.445995169027206
57.84926024914452
41.80761743965679
7.984802313979739
14.079201722414853
64.77853928501222
40.2636751789801
84.26877319218391
46.05163240075766
23.773161276013887
44.62540981270341
14.611583143134935
16.818953713590442
85.34404331055585
59.38832138152491
43.084765628634116
10.26975040138331
38.76672612224821
99.59392806460558
6.496164298817003
88.49590758869533
89.05557260869176
45.91305303282345
20.67453121313043
49.72428895505294
14.556623638138898
91.21591519616518
47.057091108770955
48.19565270445743
40.951155068635806
52.560887547845546
139.21660008548415
6.77917587243035
24.548111916526945
37.26378613341594
24.59129932500296
51.02644824065854
38.45931685853182
97.42361089770942
27.324807418930124
28.44606286519344
53.8717935018186
27.947311673576397
4.466859306238858
4.459342923158363
5.399382895000112
55.02288242591685
7.782778490134442
30.108935258498143
26.28288680627176
102.43140379195334
56.168180793859065
21.04092632343969
44.16780743720099
41.865492567263374
59.66157280524239
8.855581831626814
31.777647325162302
7.79422401388527
57.31261924362222
33.330038261049175
58.45818386769793
11.388764306174577
13.39914716901589
83.7087669534273
33.45702044493029
59.604626060639596
85.74110748231648
60.752116940275336
35.10192319325597
61.900789710159366
63.050767197595
25.5281320235269
18.32073049721428
38.51944476259628
68.03539985921785
64.20276605417078
89.245146910239
30.692321772674234
65.35695315662629
32.926353878845646
69.76743661100208
91.1502755565308
22.614613013671693
66.51217689670133
41.333752331742495
25.257333860339212
72.66213199989633
28.445539642120433
60.711890936940584
31.78935135922222
44.15504390151998
95.57194042001267
71.12187382189576
27.579082420441637
30.71681679209071
35.91339694293282
11.217213085678207
64.99451683077906
77.88950980412297
74.01769998864674
49.26190292009777
75.19184853454138
100.42092043286709
29.794089094062972
76.3576175882266
81.92265555478335
52.10012075352176
79.25026774821556
80.4183434340643
52.72540300884508
83.25761040291636
37.29131323452738
196.99945427483934
84.40089184735253
85.53897005975449
86.82236349376328
88.61214879906669
91.78257498902168
123.14628811758122
106.09370589403152
1.3101628500281475
36.181537743664805
67.88499497426747
67.58524421245683
54.58603160106013
50.40003906246706
69.30746854975644
41.611939492660234
210.07743365298998
223.2453044214806
6.634533727286151
72.20945704887882
55.613875530986725
37.484156413004975
77.43906158703615
35.982729351820346
61.97975588311317
44.66051858269807
173.40160582376402
13.281085891192115
127.91733777373943
81.48622263613713
4.909236172269998
61.904059862166804
42.66103004569156
28.08180426529129
4.472062489898565
59.85187703482539
47.64474664188541
163.23240387612304
147.19245557820642
4.326320910728388
8.064049063858372
5.222266288718175
8.780507373216192
5.312650459562679
9.512628834008463
5.556273766692811
10.321032729950407
8.59725788575582
4.437830549285977
4.877453754883388
6.501168674298641
12.216253528141854
6.436789426201549
12.979483694833036
10.426846038890341
4.554355150396804
6.995313014727672
10.688305852749808
7.130626755418362
15.006252845915853
4.65264776011922
16.175871330770942
7.834417591959141
16.93017407865996
8.088724355510957
17.682253638016732
35.10738760374794
7.008346232779042
47.70140330629533
4.789345446483663
13.649580506013905
61.123292317923415
4.833805234696563
6.845576638758136
14.189392493316607
9.408518298585108
39.416205900637905
20.445578495704527
9.38733020884469
21.21336091974972
4.9806674390957735
16.08650338500212
5.0273506916537345
16.627447914155663
10.297978968667989
16.882955657711435
5.0917091257119305
5.432481954934734
17.413338624978767
10.711408116699062
24.73723607726082
12.266574846833153
5.17697194390859
18.521602277180904
11.3175564032521
18.766327555019267
11.4509627810032
53.1649403814511
26.70514063413606
3.0414846080848243
5.280835775919906
19.865159834937735
5.326683582408861
12.334408948388278
49.189177853868955
20.64968041320318
46.3085776780695
5.353334649663329
5.3903675494523755
21.20507086118821
5.136756244615356
4.914447657665686
5.978345998483493
13.188089955771622
6.40456459816454
4.832205263979529
5.103705797653452
4.335578168696033
5.057734838153527
30.594721343966608
6.343702553565724
6.116193657776707
5.0038856606424424
6.583687664812898
6.8258356654171894
7.084158433539888
7.311466011741849
47.8179618932814
7.331980136416
7.066920800405293
7.5735504866299586
51.32028899397864
5.48625666610698
7.825908017860358
22.53768673297998
5.807101170999091
31.19665215895989
7.595174953922664
7.854747607220383
5.535398218859176
8.080319940775128
6.37809686779928
5.937631701597546
6.005594080758183
6.124678302827193
23.077506518191747
4.481253655375941
6.315032868512403
13.791589890793297
8.891699351372386
9.145675227551669
9.355537158075556
9.599262783430502
6.717156702582433
33.02092121277204
9.6888223909568
9.400645511219665
9.885368573067428
6.859560252757126
5.629924921936454
6.896887774236363
7.030068969820222
10.95545196938803
7.707855326437606
14.356157007979752
11.217047636401931
10.77654329358417
11.03918200636729
7.543325589427647
24.376738090152084
7.411902612567258
11.745830390836666
5.650796146372259
5.6766127159233655
7.576849988610705
7.8168333047713245
4.683473669796173
68.50965824780809
11.559823778362158
11.82302750025759
24.935842340460226
7.670978814449875
12.371360076675693
12.097718946520281
12.541636101615797
12.792599791193112
5.718452629552901
8.40096005811141
12.92832833885758
12.627947599965449
13.092241149366576
37.6165659066285
35.446009289838344
8.553351115194102
123.40083210387593
8.702316278507112
8.55906827715348
8.69965299917703
15.071851311113035
8.987527576783894
8.85007865285649
9.272028381250646
8.845336107574296
25.694159111966524
5.74176611772642
15.18546663592402
4.886774471019441
5.108656262396771
9.258894835783202
36.733350254803
14.545003796271816
14.804659117908969
14.965921810958529
15.215713151680005
102.87718379845839
9.705598562455664
15.37073266305299
15.06200787951382
15.522460260098356
9.861952276571694
56.12778059365058
49.684533103085776
5.81420418422212
9.853659112479612
10.001599009103526
10.01045469317511
26.78081493095729
10.298645253453124
10.151745972322251
56.451676346408
5.853406427325031
10.156943550788014
10.442627852192746
10.721860606641496
10.583945032235079
27.29888447565743
10.5795105512062
17.65445659721188
16.062564729170326
11.022902043175835
17.81666888418643
17.50852213034079
39.16647630782382
17.961026526378536
11.181038086811
11.31698338613606
11.164269313624406
19.011638012264168
11.730027574606758
5.929482074818971
18.86965898810842
19.137126585251348
28.342448563364286
19.290709712230548
93.58350195793197
16.618432065569085
11.897628778923712
11.873700128688148
12.038811324320386
12.333217774495582
40.690857017103355
12.049299149440563
12.474073892969306
12.185127560100527
12.472044304082834
12.763001209337578
12.613432016006719
5.672634708213429
12.631321460398382
86.20294461118968
13.049722220122973
5.998125649854627
29.38316936834781
5.443973633871372
13.048460967269284
28.085571490796266
17.17400820947393
13.182563970932412
21.824448960389628
21.567050485627227
21.975819069338627
42.21061765484104
13.345867639169375
85.4902211138371
13.484091680312126
13.322880417840736
33.25090057236558
30.987465396018234
13.502442620691983
6.251874698148553
13.78243072201204
13.637309442490574
13.650402234632821
23.332358111768176
6.064259220357119
23.19812929211722
14.349459168186886
30.419085234992156
23.46564210696928
23.601656327900802
17.725522716735128
14.074139317847145
14.492085201188603
14.2093215268352
54.90640146929924
43.72484832942229
74.27140402479267
14.628075232131529
14.784247624875341
14.486064653082204
14.64618759004275
15.063319297159268
14.794975713429368
15.205061740060245
14.92923485647483
6.128173667210047
9.132131600356143
31.450270360123582
25.924844545714567
18.274513848546487
15.499370772764278
25.77816667673796
26.094332241071445
102.36507507020278
26.235886249335657
45.233460735395525
15.649753340005358
15.78264522652729
15.638556493053349
16.063171733742408
15.92484247708176
15.790100104755586
15.927574888825466
27.54960864110835
104.84755605242893
6.195141807073055
16.342621056114723
27.672772438234887
27.411562893445158
32.48393645845034
93.1772644702947
113.53113972814155
27.81200260715391
18.81838142914514
16.485231951028343
16.622932942067326
16.4817633982012
32.71199947176196
96.28416656478713
28.593314252474386
18.94134660777316
16.899183113323158
51.59033610957644
28.714665535045558
28.454083737301445