# vtk DataFile Version 2.0
mesh vtk view
ASCII
DATASET UNSTRUCTURED_GRID
POINTS 5151 double
0.0 0.027540744395891367 0.0
200.0 0.0 0.0
200.00757083636833 100.00827051310027 0.0
0.0 100.02749441732644 0.0
1.9999109090244487 0.02753808810536428 0.0
3.9998218570911312 0.027530120032833647 0.0
5.999732883237604 0.0275168425753703 0.0
7.999644026492548 0.027498259727819375 0.0
9.999555325872155 0.027474377082384024 0.0
11.999466820375247 0.027445201828027888 0.0
13.99937854897849 0.027410742749681843 0.0
15.999290550630565 0.027371010227236394 0.0
17.999202864247597 0.027326016234295685 0.0
19.99911552870896 0.027275774336665577 0.0
21.99902858285111 0.027220299690542914 0.0
23.99894206546158 0.027159609040367926 0.0
25.998856015272043 0.02709372071629675 0.0
27.998770470954067 0.027022654631245594 0.0
29.998685471112335 0.026946432277452068 0.0
31.99860105427499 0.02686507672249354 0.0
33.99851725888665 0.02677861260469502 0.0
35.998434123300505 0.026687066127853546 0.0
37.99835168576948 0.026590465055197042 0.0
39.99826998443709 0.026488838702490348 0.0
41.99818905732757 0.02638221793019066 0.0
43.99810894233554 0.02627063513454768 0.0
45.998029677214994 0.02615412423753369 0.0
47.997951299567774 0.02603272067547972 0.0
49.997873846831354 0.02590646138628354 0.0
51.997797356266034 0.025775384795043883 0.0
53.99772186494156 0.02563953079796505 0.0
55.99764740972299 0.025498940744362212 0.0
57.99757402725615 0.025353657416585948 0.0
59.99750175395232 0.025203725007670878 0.0
61.99743062597242 0.025049189096497407 0.0
63.99736067921339 0.02489009662024102 0.0
65.99729194928776 0.024726495843867467 0.0
67.99722447150138 0.02455843632641348 0.0
69.99715828084605 0.024385968883771925 0.0
71.99709341197746 0.024209145547684725 0.0
73.99702989919727 0.024028019520619903 0.0
75.9969677764349 0.023842645126187837 0.0
77.99690707722964 0.02365307775472438 0.0
79.99684783471295 0.023459373803640934 0.0
81.99679008159113 0.02326159061210971 0.0
83.99673385012869 0.02305978638961672 0.0
85.99667917213254 0.02285402013787824 0.0
87.99662607893742 0.022644351565570278 0.0
89.99657460139264 0.02243084099527312 0.0
91.99652476985054 0.0222135492619765 0.0
93.99647661415732 0.02199253760242587 0.0
95.99643016364618 0.021767867534517423 0.0
97.99638544713365 0.021539600725863396 0.0
99.99634249291925 0.021307798850548544 0.0
101.99630132878953 0.02107252343298346 0.0
103.99626198202671 0.020833835677620673 0.0
105.9962244794229 0.02059179628313924 0.0
107.99618884730066 0.020346465239508303 0.0
109.99615511154029 0.020097901606112092 0.0
111.99612329761648 0.019846163268843187 0.0
113.99609343064324 0.019591306673741957 0.0
115.99606553543022 0.019333386534363554 0.0
117.99603963655109 0.019072455509575852 0.0
119.9960157584257 0.01880856384791225 0.0
121.99599392541894 0.018541758993900478 0.0
123.99597416195724 0.018272085150931178 0.0
125.99595649266612 0.017999582794182505 0.0
127.9959409425379 0.01772428812583019 0.0
129.99592753711494 0.017446232463191172 0.0
131.99591630270223 0.017165441548486107 0.0
133.9959072666485 0.01688193476646614 0.0
135.99590045764424 0.016595724253120003 0.0
137.99589590608127 0.016306813874845363 0.0
139.99589364447436 0.016015198052649598 0.0
141.99589370796045 0.015720860399812964 0.0
143.99589613488772 0.01542377213360039 0.0
145.9959009675179 0.015123890211490089 0.0
147.99590825286452 0.014821155129235755 0.0
149.9959180437003 0.014515488300831153 0.0
151.99593039977682 0.014206788917608855 0.0
153.9959453893103 0.0138949301531527 0.0
155.99596309080525 0.013579754539365288 0.0
157.9959835953135 0.013261068282409678 0.0
159.99600700925808 0.012938634208647947 0.0
161.9960334579966 0.01261216292000113 0.0
163.99606309037114 0.01228130157974139 0.0
165.99609608458252 0.011945619519040749 0.0
167.996132655879 0.011604589512130885 0.0
169.99617306676114 0.01125756304857925 0.0
171.99621764075127 0.010903737124498445 0.0
173.99626678130588 0.010542108788565785 0.0
175.9963209983361 0.010171411561156366 0.0
177.99638094628418 0.009790024262798831 0.0
179.99644748029607 0.009395836336535925 0.0
181.99652174196981 0.008986042393810522 0.0
183.9966052947856 0.008556813127887405 0.0
185.99670035282952 0.00810275475273164 0.0
187.9968101702721 0.007615884825119699 0.0
189.99693989581965 0.0070839885258640245 0.0
191.99709795761603 0.006485097922032309 0.0
193.99730328761376 0.005785667210300461 0.0
195.9975937900351 0.004862077054348684 0.0
197.99820268834046 0.0037113721380642247 0.0
199.99857934058713 2.00261113588082 0.0
199.99848168256537 4.003757129655914 0.0
199.99839629006667 6.004401904996697 0.0
199.9984236477745 8.004862391931896 0.0
199.99849478753737 10.005219660406386 0.0
199.9985963079846 12.005512601186695 0.0
199.9987176646471 14.005760676631112 0.0
199.99885334322076 16.005975641534604 0.0
199.99899972211577 18.006165041108137 0.0
199.99915439131473 20.006334030851065 0.0
199.99931565868027 22.006486280212123 0.0
199.99948230360923 24.00662449115673 0.0
199.99965342541034 26.00675070832292 0.0
199.99982834934568 28.00686651509357 0.0
200.00000656496326 30.00697316230949 0.0
200.0001876842897 32.00707165566002 0.0
200.00037141256027 34.007162816701204 0.0
200.00055752717196 36.00724732649468 0.0
200.00074586218224 38.007325757523205 0.0
200.00093629664278 40.00739859743973 0.0
200.00112874564275 42.0074662670573 0.0
200.00132315330137 44.00752913418335 0.0
200.00151948718374 46.00758752440817 0.0
200.00171773376888 48.007641729628354 0.0
200.00191789470153 50.00769201486328 0.0
200.00211998363088 52.00773862376945 0.0
200.0023240234871 54.00778178315081 0.0
200.00253004408185 56.00782170668632 0.0
200.00273807994267 58.00785859804137 0.0
200.00294816830737 60.00789265348824 0.0
200.0031603472175 62.00792406413089 0.0
200.00337465365678 64.0079530178078 0.0
200.0035911216855 66.00797970072439 0.0
200.0038097805243 68.00800429881988 0.0
200.00403065254108 70.00802699897949 0.0
200.0042537510928 72.00804799000129 0.0
200.00447907817124 74.00806746336453 0.0
200.00470662179666 76.00808561376539 0.0
200.00493635309755 78.00810263937466 0.0
200.00516822300804 80.00811874173948 0.0
200.00540215851035 82.00813412520635 0.0
200.00563805834906 84.00814899567193 0.0
200.0058757881621 86.00816355835504 0.0
200.00611517502793 88.00817801409545 0.0
200.00635600158816 90.00819255335288 0.0
200.0065980003326 92.00820734646726 0.0
200.00684084986025 94.00822252755356 0.0
200.00708417880426 96.00823816720332 0.0
200.00732759643805 98.0082542269146 0.0
198.00757626449624 100.00851363980411 0.0
196.0075819190795 100.00875658906854 0.0
194.0075879930205 100.00899962848393 0.0
192.00759452230042 100.00924315048853 0.0
190.00760143121687 100.00948752711965 0.0
188.0076085779465 100.00973307751522 0.0
186.00761578241196 100.00998006224106 0.0
184.00762284332285 100.01022868558445 0.0
182.00762954907086 100.01047910016115 0.0
180.00763568499957 100.01073141200786 0.0
178.00764103841888 100.01098568553874 0.0
176.0076454021443 100.01124194816545 0.0
174.0076485770255 100.01150019453654 0.0
172.00765037375677 100.01176039040836 0.0
170.00765061415473 100.01202247617775 0.0
168.00764913203133 100.01228637010907 0.0
166.00764577374918 100.01255197128513 0.0
164.00764039852322 100.01281916230735 0.0
162.00763287851626 100.01308781176562 0.0
160.00762309876578 100.01335777649481 0.0
158.00761095697277 100.01362890363231 0.0
156.00759636317613 100.01390103248816 0.0
154.0075792393373 100.01417399623868 0.0
152.00755951885023 100.0144476234531 0.0
150.0075371459962 100.01472173946246 0.0
148.00751207535632 100.01499616757955 0.0
146.00748427119572 100.0152707301788 0.0
144.0074537068303 100.01554524964479 0.0
142.00742036398577 100.0158195491984 0.0
140.00738423215896 100.01609345360919 0.0
138.00734530798698 100.01636678980304 0.0
136.00730359463194 100.0166393873736 0.0
134.00725910118524 100.01691107900622 0.0
132.00721184209678 100.01718170082266 0.0
130.00716183663062 100.01745109265464 0.0
128.00710910835068 100.01771909825393 0.0
126.00705368463035 100.01798556544638 0.0
124.00699559622139 100.01825034623667 0.0
122.00693487682554 100.01851329687022 0.0
120.0068715627021 100.01877427785843 0.0
118.00680569231918 100.01903315397239 0.0
116.00673730603097 100.01928979421037 0.0
114.00666644578433 100.01954407174335 0.0
112.00659315485504 100.01979586384297 0.0
110.00651747760989 100.02004505179508 0.0
108.00643945929497 100.02029152080259 0.0
106.0063591458474 100.02053515988004 0.0
104.00627658372942 100.02077586174256 0.0
102.00619181978267 100.02101352269122 0.0
100.00610490110144 100.02124804249665 0.0
98.00601587492287 100.02147932428242 0.0
96.0059247885329 100.02170727440944 0.0
94.00583168918627 100.02193180236237 0.0
92.00573662403922 100.02215282063923 0.0
90.00563964009359 100.02237024464421 0.0
88.00554078415088 100.02258399258494 0.0
86.00544010277572 100.0227939853742 0.0
84.00533764226675 100.02300014653622 0.0
82.00523344863487 100.02320240211824 0.0
80.00512756758727 100.02340068060681 0.0
78.00502004451704 100.0235949128494 0.0
76.0049109244968 100.0237850319808 0.0
74.0048002522767 100.02397097335464 0.0
72.00468807228035 100.0241526744796 0.0
70.00457442861514 100.02433007496028 0.0
68.0044593650887 100.02450311644255 0.0
66.00434292519708 100.02467174256321 0.0
64.00422515214144 100.02483589890363 0.0
62.00410608883924 100.02499553294724 0.0
60.00398577793533 100.0251505940408 0.0
58.00386426181423 100.02530103335877 0.0
56.00374158261244 100.02544680387123 0.0
54.003617782231125 100.02558786031453 0.0
52.00349290234905 100.02572415916471 0.0
50.00336698443505 100.02585565861362 0.0
48.003240069760786 100.0259823185473 0.0
46.003112199413145 100.02610410052657 0.0
44.002983414306115 100.0262209677696 0.0
42.00285375519255 100.02633288513641 0.0
40.00272326267556 100.0264398191149 0.0
38.00259197721918 100.02654173780856 0.0
36.002459939158875 100.02663861092546 0.0
34.00232718871151 100.02673040976859 0.0
32.00219376598475 100.02681710722723 0.0
30.002059710986 100.0268986777695 0.0
[...]
POINT_DATA 5151
SCALARS DISPL_X float 1
LOOKUP_TABLE default
0.0
0.0
-0.044163212148537835
0.0
0.0005196973112296468
0.0010391668768742483
0.0015581809765959278
0.0020765119407430885
0.002593932176174174
0.0031102141926574716
0.0036251306300387376
0.004138454286368644
0.004649958147180743
0.005159415416111176
0.005666599547048112
0.006171284277999941
0.006673243666867949
0.007172252129307173
0.007668084478855288
0.008160515969504305
0.0086493223408884
0.009134279866249498
0.009615165403337081
0.010091756448388256
0.010563831193321976
0.011031168586268316
0.01149354839553595
0.011950751277103119
0.012402558845694295
0.012848753749478945
0.013289119748400514
0.013723441796108618
0.014151506125430622
0.014573100337274677
0.014988013492809428
0.015396036208709517
0.015796960755194933
0.016190581156527054
0.01657669329355105
0.016955095007782608
0.017325586206454743
0.01768796896783532
0.01804204764601553
0.018387628974247262
0.018724522165774766
0.019052539010957624
0.019371493969323517
0.019681204255011967
0.019981489913876854
0.02027217389030536
0.020553082081575344
0.020824043377317393
0.021084889681362212
0.021335455912937066
0.021575579983821494
0.02180510274767452
0.022023867917296738
0.022231721945079216
0.022428513861303994
0.02261409506428514
0.022788319055549032
0.02295104111232625
0.02310211788853194
0.023241406934102333
0.023368766120982574
0.02348405296215549
0.02358712380777626
0.02367783289962391
0.02375603126154645
0.023821565399187717
0.023874275776782344
0.023913995031874902
0.023940545880044083
0.023953738650516587
0.023953368379192545
0.023939211367051183
0.023911021087775115
0.023868523296809326
0.02381141015230499
0.023739333102750438
0.023651894221252773
0.023548635564749898
0.023429025996719387
0.023292444717613436
0.023138160473254718
0.022965305019332357
0.0227728388497127
0.022559506351129854
0.02232377626880868
0.022063761390713237
0.021777108218945095
0.021460842273015528
0.02111114597337135
0.0207230309675132
0.02028983793475796
0.01980244657296422
0.01924794138024276
0.018607339696073425
0.017850607399510825
0.016928580317708268
0.015730822061091682
0.014036224667419562
0.01048431795039082
0.008287179908419257
0.008856851702002594
0.009354974611166684
0.009195387982123663
0.008780406032006565
0.008188203423193112
0.007480289558504979
0.006688831212195232
0.005834954324617872
0.004932717330653613
0.003991991031689474
0.0030198956127916936
0.0020216851063960917
0.001001295483541809
-3.829561903830157e-05
-0.0010948250232773826
-0.0021665732681844406
-0.0032522418364870674
-0.004350862729800529
-0.005461730416176484
-0.0065843495826639455
-0.00771839425792776
-0.008863675238496925
-0.01002011365176669
-0.011187719092329561
-0.01236657118018176
-0.013556803674639004
-0.01475859047742675
-0.015972132998855772
-0.01719764845958764
-0.018435358768733173
-0.01968547966456384
-0.020948209832048526
-0.022223719725087448
-0.023512139822970884
-0.02481354804131453
-0.026127955998873298
-0.027455293813879376
-0.028795393068988456
-0.030147967546949306
-0.031512591310329276
-0.03288867370283179
-0.034275430945516355
-0.035671854329598164
-0.037076675930951916
-0.03848833527342517
-0.03990495751812167
-0.041324376358131014
-0.042744312555277116
-0.044194876145123164
-0.044227861131462584
-0.04426329237102159
-0.04430137975447205
-0.0443416816835139
-0.04438337085719522
-0.04442539682261115
-0.04446658538671502
-0.044505702167337874
-0.044541495001856744
-0.04457272319845778
-0.044598178179959876
-0.04461669823745067
-0.044627179086982535
-0.04462858132559727
-0.04461993552287664
-0.04460034546085686
-0.04456898989327958
-0.044525123103087164
-0.044468074476005634
-0.044397247266518496
-0.044312116703385064
-0.04421222756057959
-0.04409719130324817
-0.04396668290516662
-0.04382043742307819
-0.043658246403482176
-0.043479954188502375
-0.04328545417914996
-0.04307468510649034
-0.042847627353875935
-0.042604299366514393
-0.0423447541782186
-0.04206907607925151
-0.04177737744375809
-0.041469795730380885
-0.04114649066529107
-0.0408076416130341
-0.04045344513725124
-0.04008411275051807
-0.03969986885016573
-0.039300948835007427
-0.038887597396346264
-0.03846006697544587
-0.03801861637876546
-0.037563509541657845
-0.03709501443086185
-0.03661340207595826
-0.03611894571996409
-0.035611920079385774
-0.035092600704307086
-0.03456126342943483
-0.034018183907432706
-0.033463637216332394
-0.0328978975333013
-0.032321237867552366
-0.0317339298456963
-0.031136243543349217
-0.03052844735731206
-0.029910807913125798
-0.02928359000327519
-0.028647056551761755
-0.028001468601186106
-0.02734708531887492
-0.02668416401896393
-0.02601296019768213
-0.025333727579389023
-0.024646718171236783
-0.02395218232456472
-0.0232503688013858
-0.022541524844543814
-0.021825896250315592
-0.02110372744241017
-0.020375261546476557
-0.019640740464373436
-0.018900404947580687
-0.01815449466924436
-0.017403248294446623
-0.016646903548378982
-0.01588569728217282
-0.015119865536209606
-0.01434964360078957
-0.01357526607408951
-0.012796966917382628
-0.012014979507530794
-0.011229536686792222
-0.010440870810014232
-0.009649213789301956
-0.008854797136276156
-0.008057852002047186
-0.0072586092150455144
-0.006457299316861
-0.005654152596251351
-0.004849399121487571
-0.00404326877121058
-0.003235991263976748
-0.002427796186673973
-0.0016189130219938983
-0.0008095711751455482
0.0
0.0
0.0
0.0
0.0
0.0
0.0
0.0
0.0
0.0
0.0
0.0
0.0
0.0
0.0
0.0
0.0
0.0
0.0
0.0
0.0
0.0
0.0
0.0
0.0
0.0
0.0
0.0
0.0
0.0
0.0
0.0
0.0
0.0
0.0
0.0
0.0
0.0
0.0
0.0
0.0
0.0
0.0
0.0
0.0
0.0
0.0
0.0
0.0
0.000488970254241038
0.0004587521885538232
0.00042902152627579705
0.00039975676286999956
0.0003709364717123581
0.0003425392980429892
0.00031454395242441486
0.00028692920381618756
0.0002596738723714475
0.00023275682205664086
0.00020615695318983293
0.0001798531949886921
0.0001538244982128672
0.000128049827980194
0.0001025081568299682
7.717845810030418e-05
5.203969968134055e-05
2.7070838199239336e-05
2.250813680661976e-06
-2.244145525916194e-05
-4.702707566617205e-05
-7.152718390315183e-05
-9.596294868395847e-05
-0.00012035557346516142
-0.00014472629817803096
-0.00016909640028917703
-0.00019348719518290892
-0.00021792003586340938
-0.00024241631197923638
-0.0002669974481773687
-0.00029168490179796894
-0.000316500159927028
-0.00034146473582731844
-0.0003666001647743247
-0.0003919279993263916
-0.0004174698040660537
-0.00044324714985269174
-0.0004692816076333185
-0.0004955947418624146
-0.0005222081035888641
-0.0005491432232730862
-0.0005764216034037051
-0.0006040647109895541
-0.0006320939700084385
-0.0006605307539011337
-0.0006893963782047755
-0.0007187120934260792
-0.0007484990782610637
-0.0007787784332729324
0.0009777220560536948
0.0009172951616948814
0.0008578430211611042
0.0007993226290555294
0.0007416911362514468
0.000684905837712317
0.0006289241593280998
0.0005737036439877274
0.0005192019370991044
0.00046537677175897973
0.0004121859537644702
0.0003595873466480238
0.0003075388569057965
0.0002559984195779233
0.00020492398432754447
0.0001542735021526883
0.00010400491285395854
5.4076133368431637e-05
4.445047068710863e-06
-4.493050588715877e-05
-9.409273707644685e-05
-0.0001430839171416971
-0.0001919463818734601
-0.00024072253700419604
-0.0002894548616801882
-0.0003381859105865252
-0.00038695831471308466
-0.00043581478075687324
-0.0004847980891656131
-0.0005339510908374452
-0.0005833167024994339
-0.0006329379007979635
-0.0006828577151434045
-0.0007331192193604605
-0.0007837655222041232
-0.0008348397568141256
-0.0008863850691887697
-0.0009384446057701694
-0.0009910615002442097
-0.0010442788596701305
-0.0010981397500660014
-0.0011526871815888602
-0.0012079640934603516
-0.0012640133388017749
-0.0013208776695542849
-0.001378599721673059
-0.001437222000797377
-0.0014967868686082896
-0.0015573365300992235
0.0014660369770911521
0.0013754197265345757
0.0012862644738953128
0.0011985067203246636
0.001112082202488528
0.001026926874090375
0.0009429768859254672
0.0008601685647973018
0.0007784383916144281
0.0006977229789714566
0.000617959048503366
0.0005390834082854529
0.00046103293053464137
0.00038374452984996
0.0003071551422122876
0.0002312017049448333
0.0001558211378183966
8.095032546687263e-05
6.5261012608901105e-06
-6.75147672316017e-05
-0.00014123559108140618
-0.000214699771037358
-0.00028797080668704444
-0.00036111230367478423
-0.0004341879789273403
-0.0005072616638523389
-0.0005803973054895454
-0.0006536589656091227
-0.0007271108177640182
-0.0008008171423184637
-0.0008748423194876114
-0.0009492508204371433
-0.001024107196505683
-0.0010994760666280252
-0.0011754221030477764
-0.0012520100154291317
-0.0013293045334879508
-0.0014073703882801966
-0.00148627229230227
-0.0015660749185747835
-0.0016468428788991311
-0.001728640701494387
-0.0018115328082408742
-0.0018955834917754749
-0.0019808568927027776
-0.0020674169772058777
-0.0021553275153584225
-0.0022446520604580485
-0.0023354539297185733
0.001953696637338132
0.0018329167353774646
0.0017140859150996419
0.0015971181954508844
0.001481927911463583
0.0013684296892321932
0.0012565384189441935
0.0011461692264092456
0.001037237443512064
0.000929658577996144
0.0008233482829644301
0.0007182223264615625
0.0006141965614784556
0.0005111868966969306
0.000409109268267969
0.00030787961289230494
0.00020741384244785663
0.00010762782038473786
8.437340084264932e-06
-9.024189464690202e-05
-0.0001884942867930366
-0.000286404360932056
-0.0003840567755166376
-0.00048153633254817093
-0.0005789279845786914
-0.0006763168389947183
-0.0007737881595568563
-0.0008714273651870497
-0.0009693200260143478
-0.0010675518567075223
-0.001166208707141765
-0.0012653765504641171
-0.0013651414686410462
-0.0014655896355918736
-0.0015668072980251759
-0.0016688807541241
-0.0017718963302398567
-0.001875940355776481
-0.0019810991364723318
-0.002087458926306001
-0.0021951058982783546
-0.0023041261143467366
-0.0024146054948124655
-0.0025266297874881947
-0.002640284536997336
-0.0027556550545838904
-0.0028728263888353595
-0.002991883297747076
-0.003112910222578855
0.002440482729697183
0.0022895771086795954
0.0021411074377725593
0.0019949662689658807
0.0018510465526684556
0.0017092416058025837
0.0015694450774886397
0.0014315509128770487
0.0012954533156623613
0.0011610467097906859
0.0010282257008450626
0.0008968850375654475
0.0007669195739304925
0.0006382242321987385
0.000510693967275918
0.0003842237327442962
0.00025870844885952265
0.00013404297278946415
1.0122071340044068e-05
-0.00011315960361902665
-0.00023590753683679959
-0.0003582273683180426
-0.00048022490878109206
-0.000602006151830047
-0.0007236772827617649
-0.000845344683951155
-0.0009671149367821954
-0.0010890948201155715
-0.0012113913053066255
-0.0013341115478094244
-0.0014573628754253358
-0.0015812527732769156
-0.0017058888656108658
-0.0018313788945584894
-0.001957830695999532
-0.0020853521727100914
-0.002214051264992582
-0.0023440359190155993
-0.0024754140531182685
-0.002608293522362958
-0.002742782081649514
-0.0028789873477345386
-0.0030170167605315817
-0.003156977544099772
-0.003298976667761245
-0.0034431208078196805
-0.0035895163103854245
-0.0037382691558432175
-0.003889484925529154
0.0029261770450784235
0.002745191858439115
0.002567129218649246
0.0023918602302107407
0.0022192564805665425
0.0020491900008925467
0.001881533224029698
0.0017161589402295604
0.0015529402513596725
0.0013917505241847618
0.001232463343308998
0.0010749524643277433
0.0009190917677040192
0.0007647552138466263
0.0006118167998302379
0.00046015051816063093
0.0003096303179500568
0.00016013006883140452
1.1523527904289682e-05
-0.00013631569003433273
-0.0002835141387456184
-0.0004301985631070437
-0.0005764959178163447
-0.0007225333821142813
-0.000868438370431603
-0.0010143385388950144
-0.0011603617876534374
-0.0013066362590146052
-0.00145329033140894
-0.0016004526092238257
-0.0017482519085784034
-0.001896817239134757
-0.0020462777820694045
-0.00219676286435837
-0.0023484019295485423
-0.002501324505231011
-0.0026556601674516947
-0.0028115385023304938
-0.0029690890651925916
-0.003128441337549984
-0.0032897246823071886
-0.003453068297601771
-0.003618601169728865
-0.003786452025638247
-0.003956749285531439
-0.004129621016126527
-0.004305194885198159
-0.004483598118038305
-0.004664957456520878
0.0034105614981604026
0.0031995521121627453
0.0029919515400446536
0.0027876094627831798
0.0025863761314261846
0.0023881023200726203
0.002192639275561247
0.001999838664660192
0.0018095525195169259
0.001621633182092812
0.0014359332482666049
0.0012523055122512481
0.0010706029119254986
0.0008906784756380745
0.000712385270997801
0.0005355763561198693
0.00036010473375240365
0.00018582330866554028
1.258484864252771e-05
-0.00015975805063439075
-0.00033135299653796677
-0.000502347826079875
-0.0006728906279413166
-0.0008431297598071604
-0.0010132138608946082
-0.0011832918596014555
-0.0013535129762312769
-0.0015240267207850592
-0.0016949828858392397
-0.001866531534561164
-0.0020388229839432273
-0.0022120077833671496
-0.002386236688641355
-0.0025616606316882806
-0.0027384306860816624
-0.0029166980286823695
-0.0030966138976446524
-0.0032783295471058905
-0.0034619961989115484
-0.003647764991766107
-0.003835786928243431
-0.004026212820133292
-0.004219193232645677
-0.004414878428041313
-0.004613418309303268
-0.00481496236451227
-0.005019659612635742
-0.005227658551486981
-0.005439107108655406
0.0038934181539872713
0.0036524491375490567
0.003415374812298002
0.003182023464476207
0.002952224040541955
0.002725806091738265
0.0025025997149611006
0.002282435490841199
0.002065144419915352
0.0018505578577201634
0.0016385074495955405
0.0014288250659370964
0.0012213427385870772
0.0010158925990023987
0.0008123068187863084
0.0006104175531194499
0.0004100568875747316
0.0002110567887491342
1.3249059098275877e-05
-0.0001835347036947031
-0.0003794631425168148
-0.0005747051715521522
-0.0007694300017329482
-0.0009638071607537317
-0.0011580065075276079
-0.0013521982410012328
-0.0015465529032824003
-0.001741241377069288
-0.0019364348774057894
-0.002132304937820986
-0.0023290233909456746
-0.0025267623437323365
-0.002725694147439981
-0.0029259913625836464
-0.003127826719074276
-0.003331373071829811
-0.003536803352163593
-0.003744290515304728
-0.003954007484447299
-0.004166127091770759
-0.004380822016923335
-0.004598264723508946
-0.004818627394171079
-0.005042081864920769
-0.0052687995594102996
-0.005498951423910113
-0.005732707863802205
-0.005970238682457515
-0.006211713023418827
0.004374529255568609
0.004103674368028844
0.003837199596934503
0.0035749118678015303
0.0033166188599164413
0.0030621289418006088
0.0028112511025920645
0.002563794880384117
0.0023195702885157946
0.0020783877407581494
0.0018400579762881373
0.0016043919852856206
0.0013712009359312667
0.0011402961035252652
0.0009114888023864455
0.0006845903211325724
0.0004594118618846013
0.00023576448387953932
1.3459051921136088e-05
-0.00020769380996223387
-0.00042788375932048664
-0.0006473007702837941
-0.0008661351625371978
-0.001084577624090803
-0.0013028192277139826
-0.0015210514409429014
-0.0017394661296127394
-0.001958255554904148
-0.0021776123639330623
-0.002397729573949547
-0.0026188005502495236
-0.002841018977940648
-0.0030645788277417116
-0.003289674316036442
-0.003516499859433204
-0.003745250024140125
-0.003976119470496394
-0.0042093028930523515
-0.004444994956639344
-0.004683390228921272
-0.004924683109974957
-0.005169067759503451
-0.005416738022344743
-0.0056678873530003945
-0.0059227087399726045
-0.0061813946307608435
-0.0064441368584347266
-0.006711126570763755
-0.006982554162946943
0.004853677252644518
0.004553019429299731
0.0042572266306572515
0.003966084461187148
0.0036793793764707395
0.0033968986087719545
0.003118430088175762
0.002843762360462804
0.0025726845028365693
0.002304986038561591
0.002040456851510077
0.0017788871015497795
0.0015200671416407876
0.0012637874374414352
0.0010098384901557598
0.0007580107632885069
0.0005080946139065002
0.0002598802289413724
1.3157567005147706e-05
-0.0002322836938762382
-0.00047665420224932397
-0.0007201649726538918
-0.0009630274182329099
-0.0012054533763409985
-0.0014476551270096445
-0.0016898454041739774
-0.0019322373996101356
-0.00217504475957486
-0.002418481574181184
-0.0026627623595840283
-0.002908102033090739
-0.003154715881351414
-0.003402819521825672
-0.0036526288577674293
-0.003904360027001936
-0.0041582293448331805
-0.00441445324145316
-0.004673248194282852
-0.0049348306557262895
-0.005199416976877776
-0.005467223327782103
-0.005738465614912065
-0.006013359396594047
-0.00629211979718199
-0.006574961420852392
-0.006862098265965793
-0.007153743641014762
-0.007450110083252247
-0.00775140928116769
0.005330644831776837
0.005000276166989316
0.004675256850277988
0.00435535121093523
0.004040324530848508
0.003729942959291099
0.0034239734229671143
0.0031221835326131404
0.0028243414873986893
0.0025302159783001776
0.0022395760915536298
0.0019521912132181621
0.0016678309358069492
0.0013862649678672973
0.0011072630473143623
0.0008305948592475677
0.0005560299589050106
0.0002833377003376914
1.2287171316272752e-05
-0.0002573528650914431
-0.0005258140218821814
-0.0007933283321111992
-0.0010601282852566564
-0.0013264468557525014
-0.0015925175235400918
-0.0018585742865402871
-0.002124851664993986
-0.0023915846976665686
-0.0026590089299549317
-0.002927360393979841
-0.0031968755807893537
-0.003467791404841425
-0.0037403451609783027
-0.004014774474153816
-0.004291317242208669
-0.004570211572058031
-0.00485169570969171
-0.005136007964450318
-0.005423386628097453
-0.005714069889271912
-0.006008295743970763
-0.006306301902783949
-0.006608325695677511
-0.006914603975198946
-0.00722537301905999
-0.007540868433135654
-0.007861325056002332
-0.008186976866222977
-0.008518056893672382
0.005805214947925896
0.00544523667557794
0.00509109141869264
0.004742522284021881
0.004399273436873146
0.004061090004129391
0.003727717972253656
0.0033989040817193985
0.0030743957192371748
0.002753940809072206
0.002437287704667572
0.0021241850817049256
0.0018143818336502264
0.0015076269707460122
0.0012036695233263
0.0009022584502458674
0.0006031425531321892
0.00030607039708798785
1.0790238395005581e-05
-0.0002829500403122563
-0.0005754029869869233
-0.0008668216288998355
-0.0011574595128830056
-0.001447570736875336
-0.0017374099726166323
-0.0020272324793889534
-0.0023172941087554557
-0.002607851300296103
-0.002899161068385701
-0.003191480980105429
-0.003485069124424553
-0.0037801840728330853
-0.004077084831652802
-0.00437603078630542
-0.004677281637851877
-0.004981097332190473
-0.005287737982340527
-0.005597463784304353
-0.00591053492706381
-0.006227211497335278
-0.0065477533797805194
-0.006872420153449166
-0.007201470985310751
-0.007535164521821156
-0.007873758779559696
-0.008217511036066057
-0.008566677722103268
-0.008921514316668773
-0.009282275246173375
0.006277170857668006
0.005887693328708258
0.005504531752001425
0.005127408071814482
0.004756045401712881
0.0043901679147126844
0.0040295007281986326
0.003673769785192007
0.003322701733471883
0.002976023803966822
0.00263346368974311
0.002294749426822576
0.0019596092779683998
0.001627771620479949
0.001298964838943477
0.000972917223790542
0.0006493568764239847
0.00032801162158268714
8.608927530259893e-06
-0.0003091241654357715
-0.0006254611077163996
-0.0009406758940457323
-0.001255043107740839
-0.0015688379553502507
-0.0018823362915438438
-0.0021958146341446317
-0.0025095501692563482
-0.0028238207464916757
-0.0031389048643539873
-0.003455081645873469
-0.003772630804644338
-0.004091832601456393
-0.004412967791761878
-0.00473631756427144
-0.005062163471010323
-0.005390787349242585
-0.005722471235712954
-0.006057497273725342
-0.006396147613644855
-0.006738704307484427
-0.007085449198315463
-0.00743666380532794
-0.007792629205456158
-0.008153625912582417
-0.008519933755432215
-0.0088918317553792
-0.009269598005487373
-0.009653509552227022
-0.010043842281411803
0.006746296154206156
0.00632743881100388
0.0059153795478687505
0.005509819214776989
0.005110459946801382
0.004717005040188448
0.00432915882304081
0.003946626522336709
0.003569114128927667
0.003196328262056153
0.0028279760348334996
0.002463764922013034