# vtk DataFile Version 2.0
mesh vtk view
ASCII
DATASET UNSTRUCTURED_GRID
POINTS 5151 double
0.0 0.0 0.0
200.0 0.0 0.0
200.0 100.0 0.0
0.0 100.0 0.0
1.999999999992088 0.0 0.0
3.99999999998431 0.0 0.0
5.999999999976449 0.0 0.0
7.999999999968104 0.0 0.0
9.999999999959499 0.0 0.0
11.99999999995113 0.0 0.0
13.99999999994364 0.0 0.0
15.9999999999368 0.0 0.0
17.99999999992997 0.0 0.0
19.99999999992315 0.0 0.0
21.99999999991632 0.0 0.0
23.99999999990924 0.0 0.0
25.99999999990065 0.0 0.0
27.99999999989052 0.0 0.0
29.99999999988014 0.0 0.0
31.99999999986976 0.0 0.0
33.99999999985938 0.0 0.0
35.999999999849 0.0 0.0
37.99999999983862 0.0 0.0
39.99999999982824 0.0 0.0
41.99999999981785 0.0 0.0
43.99999999980747 0.0 0.0
45.99999999979708 0.0 0.0
47.9999999997867 0.0 0.0
49.99999999977633 0.0 0.0
51.99999999976595 0.0 0.0
53.99999999975557 0.0 0.0
55.99999999974518 0.0 0.0
57.9999999997348 0.0 0.0
59.99999999972442 0.0 0.0
61.99999999971404 0.0 0.0
63.99999999970631 0.0 0.0
65.99999999970294 0.0 0.0
67.99999999969964 0.0 0.0
69.99999999969637 0.0 0.0
71.99999999969307 0.0 0.0
73.9999999996898 0.0 0.0
75.99999999968652 0.0 0.0
77.99999999968324 0.0 0.0
79.99999999967997 0.0 0.0
81.99999999967669 0.0 0.0
83.99999999967342 0.0 0.0
85.99999999967014 0.0 0.0
87.99999999966685 0.0 0.0
89.99999999966359 0.0 0.0
91.9999999996603 0.0 0.0
93.99999999965702 0.0 0.0
95.99999999965372 0.0 0.0
97.99999999965046 0.0 0.0
99.99999999964719 0.0 0.0
101.9999999996439 0.0 0.0
103.9999999996406 0.0 0.0
105.9999999996373 0.0 0.0
107.9999999996341 0.0 0.0
109.9999999996308 0.0 0.0
111.9999999996275 0.0 0.0
113.9999999996242 0.0 0.0
115.9999999996209 0.0 0.0
117.9999999996177 0.0 0.0
119.9999999996144 0.0 0.0
121.9999999996111 0.0 0.0
123.9999999996079 0.0 0.0
125.9999999996046 0.0 0.0
127.9999999996064 0.0 0.0
129.9999999996169 0.0 0.0
131.9999999996278 0.0 0.0
133.9999999996388 0.0 0.0
135.9999999996497 0.0 0.0
137.9999999996607 0.0 0.0
139.9999999996716 0.0 0.0
141.9999999996826 0.0 0.0
143.9999999996935 0.0 0.0
145.9999999997044 0.0 0.0
147.9999999997154 0.0 0.0
149.9999999997264 0.0 0.0
151.9999999997373 0.0 0.0
153.9999999997482 0.0 0.0
155.9999999997592 0.0 0.0
157.9999999997701 0.0 0.0
159.9999999997811 0.0 0.0
161.999999999792 0.0 0.0
163.999999999803 0.0 0.0
165.9999999998139 0.0 0.0
167.9999999998249 0.0 0.0
169.9999999998358 0.0 0.0
171.9999999998468 0.0 0.0
173.9999999998577 0.0 0.0
175.9999999998686 0.0 0.0
177.9999999998796 0.0 0.0
179.9999999998905 0.0 0.0
181.9999999999015 0.0 0.0
183.9999999999124 0.0 0.0
185.9999999999233 0.0 0.0
187.9999999999343 0.0 0.0
189.9999999999453 0.0 0.0
191.9999999999562 0.0 0.0
193.9999999999671 0.0 0.0
195.9999999999781 0.0 0.0
197.9999999999891 0.0 0.0
200.0 1.999999999992155 0.0
200.0 3.999999999984052 0.0
200.0 5.999999999975566 0.0
200.0 7.999999999968399 0.0
200.0 9.999999999961574 0.0
200.0 11.99999999995462 0.0
200.0 13.99999999994526 0.0
200.0 15.99999999993488 0.0
200.0 17.9999999999245 0.0
200.0 19.99999999991412 0.0
200.0 21.99999999990374 0.0
200.0 23.99999999989335 0.0
200.0 25.99999999988297 0.0
200.0 27.99999999987259 0.0
200.0 29.99999999986221 0.0
200.0 31.99999999985316 0.0
200.0 33.99999999984982 0.0
200.0 35.99999999984654 0.0
200.0 37.99999999984326 0.0
200.0 39.99999999983999 0.0
200.0 41.99999999983671 0.0
200.0 43.99999999983343 0.0
200.0 45.99999999983015 0.0
200.0 47.99999999982686 0.0
200.0 49.99999999982359 0.0
200.0 51.99999999982031 0.0
200.0 53.99999999981704 0.0
200.0 55.99999999981375 0.0
200.0 57.99999999981047 0.0
200.0 59.99999999980719 0.0
200.0 61.99999999980393 0.0
200.0 63.99999999980319 0.0
200.0 65.99999999981392 0.0
200.0 67.99999999982487 0.0
200.0 69.99999999983582 0.0
200.0 71.99999999984675 0.0
200.0 73.9999999998577 0.0
200.0 75.99999999986865 0.0
200.0 77.99999999987959 0.0
200.0 79.99999999989055 0.0
200.0 81.99999999990149 0.0
200.0 83.99999999991243 0.0
200.0 85.99999999992338 0.0
200.0 87.99999999993432 0.0
200.0 89.99999999994527 0.0
200.0 91.9999999999562 0.0
200.0 93.99999999996716 0.0
200.0 95.99999999997809 0.0
200.0 97.99999999998906 0.0
198.0000000000142 100.0 0.0
196.0000000000284 100.0 0.0
194.0000000000426 100.0 0.0
192.0000000000568 100.0 0.0
190.0000000000711 100.0 0.0
188.0000000000853 100.0 0.0
186.0000000000995 100.0 0.0
184.0000000001137 100.0 0.0
182.0000000001279 100.0 0.0
180.0000000001421 100.0 0.0
178.0000000001563 100.0 0.0
176.0000000001706 100.0 0.0
174.0000000001848 100.0 0.0
172.000000000199 100.0 0.0
170.0000000002132 100.0 0.0
168.0000000002274 100.0 0.0
166.0000000002416 100.0 0.0
164.0000000002558 100.0 0.0
162.00000000027 100.0 0.0
160.0000000002842 100.0 0.0
158.0000000002985 100.0 0.0
156.0000000003127 100.0 0.0
154.0000000003269 100.0 0.0
152.0000000003411 100.0 0.0
150.0000000003553 100.0 0.0
148.0000000003695 100.0 0.0
146.0000000003837 100.0 0.0
144.000000000398 100.0 0.0
142.0000000004122 100.0 0.0
140.0000000004264 100.0 0.0
138.0000000004406 100.0 0.0
136.0000000004548 100.0 0.0
134.000000000469 100.0 0.0
132.0000000004832 100.0 0.0
130.0000000004974 100.0 0.0
128.0000000005112 100.0 0.0
126.0000000005163 100.0 0.0
124.0000000005163 100.0 0.0
122.0000000005163 100.0 0.0
120.0000000005163 100.0 0.0
118.0000000005163 100.0 0.0
116.0000000005164 100.0 0.0
114.0000000005164 100.0 0.0
112.0000000005164 100.0 0.0
110.0000000005164 100.0 0.0
108.0000000005164 100.0 0.0
106.0000000005164 100.0 0.0
104.0000000005164 100.0 0.0
102.0000000005164 100.0 0.0
100.0000000005164 100.0 0.0
98.00000000051641 100.0 0.0
96.00000000051642 100.0 0.0
94.00000000051642 100.0 0.0
92.00000000051642 100.0 0.0
90.00000000051645 100.0 0.0
88.00000000051644 100.0 0.0
86.00000000051647 100.0 0.0
84.00000000051647 100.0 0.0
82.00000000051647 100.0 0.0
80.00000000051645 100.0 0.0
78.00000000051648 100.0 0.0
76.0000000005165 100.0 0.0
74.0000000005165 100.0 0.0
72.00000000051139 100.0 0.0
70.00000000049761 100.0 0.0
68.0000000004834 100.0 0.0
66.00000000046919 100.0 0.0
64.00000000045495 100.0 0.0
62.00000000044074 100.0 0.0
60.00000000042652 100.0 0.0
58.00000000041231 100.0 0.0
56.0000000003981 100.0 0.0
54.00000000038386 100.0 0.0
52.00000000036965 100.0 0.0
50.00000000035544 100.0 0.0
48.0000000003412 100.0 0.0
46.00000000032699 100.0 0.0
44.00000000031278 100.0 0.0
42.00000000029854 100.0 0.0
40.00000000028433 100.0 0.0
38.00000000027012 100.0 0.0
36.00000000025588 100.0 0.0
34.00000000024167 100.0 0.0
32.00000000022749 100.0 0.0
30.00000000021328 100.0 0.0
28.00000000019904 100.0 0.0
26.00000000018483 100.0 0.0
24.00000000017062 100.0 0.0
22.00000000015638 100.0 0.0
20.00000000014217 100.0 0.0
18.00000000012795 100.0 0.0
16.00000000011372 100.0 0.0
14.0000000000995 100.0 0.0
12.00000000008529 100.0 0.0
10.00000000007105 100.0 0.0
8.000000000056872 100.0 0.0
6.000000000042661 100.0 0.0
4.00000000002845 100.0 0.0
2.000000000014211 100.0 0.0
0.0 98.00000000001421 0.0
0.0 96.00000000002842 0.0
0.0 94.00000000004263 0.0
0.0 92.00000000005686 0.0
0.0 90.00000000007107 0.0
0.0 88.00000000008528 0.0
0.0 86.00000000009949 0.0
0.0 84.0000000001137 0.0
0.0 82.00000000012791 0.0
0.0 80.00000000014212 0.0
0.0 78.00000000015635 0.0
0.0 76.00000000017056 0.0
0.0 74.00000000018477 0.0
0.0 72.00000000019898 0.0
0.0 70.00000000021319 0.0
0.0 68.0000000002274 0.0
0.0 66.00000000024161 0.0
0.0 64.00000000025561 0.0
0.0 62.00000000025817 0.0
0.0 60.00000000025817 0.0
0.0 58.00000000025818 0.0
0.0 56.00000000025818 0.0
0.0 54.00000000025818 0.0
0.0 52.0000000002582 0.0
0.0 50.0000000002582 0.0
0.0 48.00000000025821 0.0
0.0 46.00000000025821 0.0
0.0 44.00000000025822 0.0
0.0 42.00000000025823 0.0
0.0 40.00000000025823 0.0
0.0 38.00000000025825 0.0
0.0 36.0000000002557 0.0
0.0 34.0000000002417 0.0
0.0 32.00000000022747 0.0
0.0 30.00000000021326 0.0
0.0 28.00000000019905 0.0
0.0 26.00000000018483 0.0
0.0 24.0000000001706 0.0
0.0 22.00000000015639 0.0
0.0 20.00000000014217 0.0
0.0 18.00000000012794 0.0
0.0 16.00000000011374 0.0
0.0 14.00000000009952 0.0
0.0 12.00000000008531 0.0
0.0 10.00000000007108 0.0
0.0 8.000000000056858 0.0
0.0 6.000000000042647 0.0
0.0 4.000000000028436 0.0
0.0 2.000000000014225 0.0
1.99999999999253 2.000000000014004 0.0
1.999999999992973 4.000000000027993 0.0
1.999999999993415 6.000000000041975 0.0
1.999999999993858 8.000000000055973 0.0
1.9999999999943 10.00000000006999 0.0
1.999999999994743 12.000000000084 0.0
1.999999999995185 14.00000000009798 0.0
1.999999999995628 16.00000000011195 0.0
1.99999999999607 18.00000000012591 0.0
1.999999999996512 20.00000000013988 0.0
1.999999999996955 22.00000000015386 0.0
1.999999999997397 24.00000000016783 0.0
1.99999999999784 26.00000000018181 0.0
1.999999999998282 28.00000000019578 0.0
1.999999999998725 30.00000000020976 0.0
1.999999999999167 32.00000000022372 0.0
1.99999999999961 34.00000000023778 0.0
2.000000000000052 36.0000000002516 0.0
2.000000000000495 38.00000000025409 0.0
2.000000000000937 40.00000000025404 0.0
2.000000000001379 42.00000000025401 0.0
2.000000000001822 44.00000000025397 0.0
2.000000000002265 46.00000000025393 0.0
2.000000000002707 48.0000000002539 0.0
2.000000000003149 50.00000000025386 0.0
2.000000000003592 52.00000000025381 0.0
2.000000000004034 54.00000000025376 0.0
2.000000000004476 56.00000000025373 0.0
2.000000000004919 58.00000000025371 0.0
2.000000000005361 60.00000000025366 0.0
2.000000000005804 62.00000000025364 0.0
2.000000000006247 64.00000000025109 0.0
2.000000000006689 66.00000000023735 0.0
2.000000000007131 68.0000000002234 0.0
2.000000000007573 70.00000000020943 0.0
2.000000000008017 72.00000000019546 0.0
2.000000000008459 74.0000000001815 0.0
2.000000000008901 76.00000000016756 0.0
2.000000000009344 78.00000000015359 0.0
2.000000000009786 80.0000000001396 0.0
2.000000000010228 82.00000000012567 0.0
2.000000000010671 84.00000000011167 0.0
2.000000000011114 86.00000000009771 0.0
2.000000000011556 88.00000000008376 0.0
2.000000000011998 90.0000000000698 0.0
2.000000000012441 92.00000000005585 0.0
2.000000000012884 94.0000000000419 0.0
[...]
POINT_DATA 5151
SCALARS DISPL_X float 1
LOOKUP_TABLE default
0.0
0.0
-1.369059576604673
0.0
0.016110616648119053
0.0322141731831017
0.04830361027447376
0.06437187016303575
0.0804118974613994
0.09641663997238162
0.11237904953120087
0.12829208287742797
0.14414870256260304
0.15994187789944647
0.1756645859584915
0.19130981261799818
0.2068705536729064
0.22233981600852237
0.23771061884451394
0.2529759950546335
0.2681289925675404
0.28316267585373445
0.2980701275034495
0.3128444499000359
0.32747876699298123
0.3419662261743178
0.35630000026161446
0.37047328959019665
0.3844793242165232
0.39831136623384733
0.4119627122004159
0.4254266956793672
0.4386966898883493
0.45176611045551496
0.4646284182770923
0.477277122469995
0.4897057834110429
0.5019080158523387
0.5138774921000826
0.5256079452412608
0.537093172400097
0.548327038002895
0.5593034770264815
0.5700164982016651
0.5804601871390178
0.5906287093396864
0.600516313049029
0.610117331905371
0.6194261873301825
0.6284373905994662
0.6371455445288357
0.6455453446968392
0.6536315801222286
0.661399133301049
0.6688429794984663
0.6759581851779101
0.6827399054361989
0.6891833802974556
0.6952839297004239
0.7010369469928394
0.70643789072202
0.7114822744821138
0.7161656545444901
0.7204836149571723
0.7244317497504598
0.7280056418268201
0.7312008380410642
0.7340128198883411
0.73643696910794
0.7384685273748193
0.7401025490802526
0.741333845988122
0.7421569222813666
0.7425658981660141
0.7425544197549689
0.7421155523785867
0.7412416537210285
0.7399242222010891
0.7381537147214547
0.7359193261852637
0.7332087208588359
0.7300077025072469
0.726299805898301
0.7220657862460165
0.7172829746708962
0.7119244555993031
0.7059580043410937
0.6993446968850254
0.6920370643330691
0.6839766031121104
0.675090354787298
0.6652861104634813
0.6544455251745118
0.6424139599929093
0.6289849759774968
0.6138758437618907
0.5966861827875255
0.5768275305782762
0.5533688293848356
0.5247859898489563
0.48765548389384217
0.43512296469000644
0.32501385646211545
0.25690257716099696
0.27456240276208044
0.2900042129461672
0.28505702744583356
0.2721925869922035
0.2538343061189865
0.23188897631365435
0.20735376757805218
0.18088358406315405
0.152914237250262
0.1237517219823737
0.0936167639965425
0.06267223829827884
0.031040159989796076
-0.0011871641901873486
-0.033939575721598864
-0.06716377131371766
-0.1008194969310991
-0.13487674462381638
-0.169313642901471
-0.20411483706258232
-0.23927022199576053
-0.27477393239340464
-0.3106235232047674
-0.3468192918622164
-0.38336370658563457
-0.4202609139138091
-0.4575163048002292
-0.4951361229645289
-0.5331271022472168
-0.5714961218307284
-0.6102498696014791
-0.6493945047935044
-0.6889353114777108
-0.7288763345120974
-0.7692199892807504
-0.8099666359650722
-0.8511141082302607
-0.8926571851386421
-0.9345869939554285
-0.9768903306202076
-1.0195488847877856
-1.0625383593110072
-1.105827484217543
-1.1493769538595093
-1.1931383934761803
-1.2370536830617715
-1.2810556671020614
-1.3250736892135906
-1.3700411604988183
-1.37106369507534
-1.3721620635016691
-1.3733427723886336
-1.3745921321889307
-1.375884496573052
-1.3771873015009457
-1.3784641469881653
-1.3796767671874741
-1.380786345057559
-1.381754419152191
-1.382543523578756
-1.3831176453609706
-1.3834425516964586
-1.3834860210935154
-1.3832180012091757
-1.3826107092865625
-1.381638686691667
-1.380278816195702
-1.3785103087561748
-1.3763146652620732
-1.373675617804937
-1.3705790543779672
-1.3670129304006933
-1.3629671700601653
-1.3584335601154238
-1.3534056385079474
-1.3478785798435737
-1.3418490795536488
-1.3353152383012006
-1.328276447970154
-1.3207332803619463
-1.3126873795247764
-1.3041413584567967
-1.2950987007565007
-1.2855636676418074
-1.2755412106240231
-1.2650368900040572
-1.2540567992547884
-1.2426074952660602
-1.2306959343551376
-1.2183294138852303
-1.2055155192867342
-1.1922620762388219
-1.1785771077417293
-1.164468795791393
-1.1499454473567172
-1.135015464354706
-1.1196873173188866
-1.1039695224609591
-1.0878706218335197
-1.0713991663124798
-1.0545637011304139
-1.0373727537063042
-1.0198348235323405
-1.0019583738941233
-0.9837518252165853
-0.9652235498438257
-0.9463818680766738
-0.9272350453068998
-0.9077912901015309
-0.8880587531046145
-0.8680455266367693
-0.8477596448851226
-0.8272090845878819
-0.806401766128146
-0.7853455549610597
-0.7640482633083403
-0.7425176520615064
-0.7207614328429597
-0.6987872701808582
-0.6766027837597833
-0.6542155507147154
-0.6316331079407733
-0.6088629543955766
-0.5859125533750014
-0.5627893347465752
-0.5395006971278453
-0.5160540099997484
-0.49245661574735744
-0.46871583162249775
-0.4448389516244767
-0.4208332482967748
-0.39670597443886146
-0.3724643647334546
-0.3481156372905589
-0.32366699511044117
-0.2991256274683606
-0.2744987112245608
-0.24979341206346278
-0.22501688566641093
-0.200176278822691
-0.1752787304837919
-0.1503313727661147
-0.12534133190752797
-0.10031572918327919
-0.07526168178689316
-0.050186303681810845
-0.025096706429511992
0.0
0.0
0.0
0.0
0.0
0.0
0.0
0.0
0.0
0.0
0.0
0.0
0.0
0.0
0.0
0.0
0.0
0.0
0.0
0.0
0.0
0.0
0.0
0.0
0.0
0.0
0.0
0.0
0.0
0.0
0.0
0.0
0.0
0.0
0.0
0.0
0.0
0.0
0.0
0.0
0.0
0.0
0.0
0.0
0.0
0.0
0.0
0.0
0.0
0.015158077881472177
0.01422131784516852
0.013299667314549709
0.012392459648969987
0.011499030623083103
0.010618718239332664
0.009750862525156861
0.008894805318301814
0.008049890043514873
0.007215461483755866
0.00639086554888482
0.005575449044649456
0.004768559444598882
0.003969544667386014
0.0031777528617290144
0.0023925322011094296
0.001613230690121557
0.0008391959841764194
6.977522410052125e-05
-0.0006956851130340202
-0.0014578393456513333
-0.0022173427009977067
-0.0029748514092027122
-0.003731022777420004
-0.00448651524351896
-0.0052419884089644885
-0.005998103050670177
-0.006755521111765691
-0.007514905671356328
-0.008276920893498428
-0.009042231955737036
-0.009811504957737867
-0.010585406810646871
-0.011364605108004064
-0.01214976797911814
-0.012941563926047665
-0.013740661645433444
-0.014547729836632873
-0.015363436997734854
-0.016188451211254784
-0.017023439921465672
-0.017869069705514856
-0.018726006040676174
-0.019594913070261594
-0.020476453370935142
-0.021371287724348043
-0.022280074896208455
-0.023203471426092977
-0.024142131431460906
0.030309383737664536
0.028436150012541322
0.02659313365599423
0.02477900150072141
0.02299242522379485
0.02123208096908183
0.019496648939171093
0.01778481296361955
0.016095260050072238
0.014426679924528372
0.012777764566698577
0.011147207746088739
0.00953370456407969
0.007935951006915623
0.006352643514153879
0.004782478566733337
0.0032241522984727145
0.0016763601344213807
0.00013779645913003676
-0.001392845682501922
-0.0029168748493698525
-0.00443560143139261
-0.005950337838077263
-0.007462398647130077
-0.008973100712085834
-0.010483763228182282
-0.011995707756105624
-0.01351025820346307
-0.015028740764134005
-0.0165524838159608
-0.01808281777748245
-0.019621074924736873
-0.021168589169445542
-0.022726695800174276
-0.02429673118832782
-0.025880032461237892
-0.02747793714485186
-0.02909178277887525
-0.0307229065075705
-0.032372644649774046
-0.034042332252046045
-0.035733302629254664
-0.0374468868972709
-0.03918441350285502
-0.04094720775618283
-0.042736591371864835
-0.04455388202471869
-0.04640039292685698
-0.04827743243307593
0.04544714628982571
0.04263801152257185
0.039874198690754696
0.037153708330064567
0.03447454827714437
0.031834733096801626
0.029232283463689484
0.026665225508716354
0.024131590140047267
0.021629412348115155
0.019156730503604346
0.016711585656849038
0.014292020846573883
0.01189608042534876
0.009521809408580915
0.007167252853289832
0.004830455272370295
0.002509460089473051
0.0002023091390875934
-0.002092957784179653
-0.004378303323523592
-0.006655692902158098
-0.008927095007298377
-0.011194481413918312
-0.013459827346747548
-0.015725111579422506
-0.017992316470175906
-0.020263427933882805
-0.022540435350684562
-0.024825331411872376
-0.02712011190411595
-0.02942677543355144
-0.031747323091676175
-0.03408375806546878
-0.036438085194481065
-0.03881231047830308
-0.04120844053812647
-0.043628482036686095
-0.04607444106137037
-0.04854832247581829
-0.05105212924587306
-0.053587861746325995
-0.0561575170554671
-0.058763088245039716
-0.06140656367378611
-0.06408992629338221
-0.0668151529761111
-0.0695842138741995
-0.07239907182127578
0.06056459575748209
0.056820418796701404
0.05313666336808889
0.049510664058977416
0.04593976525537108
0.04242132036619799
0.03895269098727
0.03553124601868661
0.032154360748873984
0.028819415917880464
0.025523796771897332
0.022264892120308438
0.019040093405832126
0.015846793797604848
0.01268238731630704
0.009544267999661453
0.006429829115883556
0.0033364624319268737
0.0002615575426122129
-0.0027974987340539624
-0.005843322890584134
-0.008878535188893734
-0.011905760041015765
-0.014927626308993299
-0.01794676752193943
-0.020965822008836267
-0.023987432946262544
-0.027014248320798538
-0.03004892080644478
-0.0330941075579332
-0.03615246992139472
-0.03922667306438763
-0.04231938552787243
-0.04543327870334808
-0.04857102623878046
-0.0517353033778471
-0.054928786237435565
-0.058154151029070913
-0.06141407323064228
-0.06471122671548603
-0.06804828284662899
-0.07142790954474884
-0.07485277033918643
-0.07832552341213403
-0.08184882064691743
-0.0854253066921006
-0.08905761805389614
-0.09274838223015935
-0.09650021689994451
0.07565496462061269
0.07097689036906746
0.06637433057094934
0.061843954337942306
0.05738244313272212
0.052986489779880096
0.04865279740214783
0.04437807829918851
0.040159052785533195
0.03599244800351126
0.03187499672619694
0.027803436164528874
0.023774506791845264
0.019784951198160892
0.015831512985553457
0.011910935715073182
0.008019961914645202
0.004155332156473389
0.00031378421154136613
-0.003507947712189826
-0.007313133641940786
-0.01110504841785932
-0.014886972172213854
-0.018662190706731457
-0.02243399576561471
-0.026205685202485805
-0.029980563040248057
-0.033761939423582715
-0.03755313046450539
-0.04135745798209216
-0.04517824913818541
-0.04901883597158438
-0.052882554833936835
-0.056772745731313176
-0.0606927515759855
-0.06464591735401283
-0.06863558921477003
-0.07266511348948357
-0.07673783564666632
-0.0808570991932517
-0.08502624453113494
-0.0892486077797707
-0.09352751957647903
-0.09786630386709291
-0.1022682767005986
-0.1067367450424101
-0.11127500562194817
-0.11588634383113974
-0.12057403269140377
0.09071148839743112
0.08510094761161256
0.07958100577812663
0.07414766713653295
0.06879695089756283
0.06352489002766895
0.05832752994492063
0.05320092714711637
0.04814114779214984
0.043144266249727614
0.03820636364257894
0.033323526394160044
0.028491844798824596
0.023707411629245417
0.018966320794737375
0.014264666062979558
0.00959853985645176
0.00496403213377354
0.0003572293650329801
-0.004225786391064315
-0.008788938301114171
-0.013336155456318353
-0.017871373452306688
-0.022398534845542724
-0.026921589483379693
-0.031444494705745445
-0.03597121541725656
-0.040505724029452767
-0.045052000273677145
-0.049614030885938604
-0.0541958091659305
-0.05880133441317747
-0.06343461124415153
-0.06809964879510948
-0.0728004598160048
-0.07754105966216135
-0.08232546519100253
-0.08715769357224531
-0.09204176102097034
-0.09698168146404951
-0.10198146515152284
-0.1070451172256549
-0.11217663626159483
-0.11738001279478566
-0.1226592278514746
-0.12801825149992235
-0.1334610414411429
-0.13899154165918745
-0.14461368115214723
0.10572740644297249
0.0991861154770451
0.09275049774138426
0.08641589334627857
0.08017766007421173
0.07403117192225123
0.06797181754239866
0.06199499860446596
0.056096128105024706
0.05027062864487716
0.04451393069626475
0.0388214708797887
0.03318869026969046
0.027611032744780308
0.02208394340093183
0.01660286703971595
0.011163246746324514
0.005760522568631749
0.00039013030791835903
-0.004952499569666114
-0.01027194289267697
-0.015572782608476124
-0.020859609466180814
-0.02613702255402197
-0.03140962968773285
-0.03668204764764512
-0.04195890226316959
-0.04724482834433683
-0.05254446946101643
-0.057862477571396086
-0.06320351250224004
-0.06857224128438164
-0.073973337347882
-0.07941147958233669
-0.08489135126853153
-0.09041763888915345
-0.09599503082698421
-0.1016282159602826
-0.107321882166258
-0.11308071474474932
-0.11890939477554635
-0.12481259742413206
-0.13079499021201596
-0.1368612312692807
-0.1430159675884013
-0.14926383329988036
-0.155609447991708
-0.1620574150960964
-0.16861232036831758
0.12069596277360542
0.11322592326402076
0.10587661918123806
0.09864272739876243
0.0915189452568006
0.08449998884388621
0.07758059116379412
0.07075550021607718
0.06401947701737593
0.05736729358932506
0.050793730937461756
0.044293577044049987
0.03786162489619939
0.03149267056907436
0.025181511382375562
0.018922944146702946
0.01271176351481668
0.00654276045122316
0.00041072083204655215
-0.005689575814535796
-0.011763357418021259
-0.017815860318116716
-0.023852330053721393
-0.029878021983365685
-0.03589820173335584
-0.04191814547103821
-0.04794314000175441
-0.05397848268914793
-0.060029481199579474
-0.06610145307245058
-0.07219972511931591
-0.07832963265570243
-0.08449651857063942
-0.09070573224009304
-0.09696262829130256
-0.10327256522672415
-0.10964090391707138
-0.11607300597444656
-0.12257423201786627
-0.12914993984489354
-0.13580548252462338
-0.1425462064287773
-0.14937744921930346
-0.15630453781254383
-0.16333278634171927
-0.17046749414121348
-0.17771394377786837
-0.18507739915618296
-0.19256310372598368
0.13561040692262688
0.12721390540889416
0.1189531875049696
0.11082226790184743
0.10281518465740969
0.09492599719581887
0.08714878418035399
0.07947764129190762
0.07190667894398964
0.06443001996350263
0.05704179726493226
0.04973615154385424
0.04250722901386926
0.035349179209283224
0.028256152873979812
0.02122229995510974
0.01424176771842264
0.007308699000265719
0.0004172306095552187
-0.00643850810882925
-0.013264396538935085
-0.020066323878797615
-0.026850190038653132
-0.033621906346814896
-0.04038739605913347
-0.04715259466922994
-0.05392345001799492
-0.06070592220202859
-0.06750598328192493
-0.07432961679243597
-0.08118281705773522
-0.08807158831616008
-0.09500194365999307
-0.1019799037971297
-0.10901149564242932
-0.11610275074834388
-0.12325970358538821
-0.1304883896846229
-0.13779484365581968
-0.1451850970965594
-0.15266517640922367
-0.16024110054460697
-0.16791887869268704
-0.17570450794301223
-0.18360397093915073
-0.19162323355358613
-0.19976824261147652
-0.20804492369367641
-0.21645917905135523
0.15046399483198006
0.14114360230829168
0.1319740255503748
0.12294861829680159
0.11406076067059293
0.10530385687193058
0.09667133273344862
0.08815663317434691
0.07975321958793365
0.07145456719540932
0.06325416239681238
0.05514550014804316
0.04712208139086441
0.039177410560684495
0.03130499319482856
0.02349833366194371
0.01575093303110151
0.008056287097182546
0.0004078845771595789
-0.007200794510163384
-0.014776280269729044
-0.022325114152270648
-0.029853849965220204
-0.03736905466657095
-0.04487730893729898
-0.052385207529393296
-0.0598993593879142
-0.06742638754682066
-0.0749729287996167
-0.08254563314710488
-0.09015116302581291
-0.09779619232189382
-0.10548740517659583
-0.11323149459079032
-0.12103516083706001
-0.1289051096898286
-0.13684805048504795
-0.1448706940227684
-0.15297975032751499
-0.16118192628321104
-0.16948392316124516
-0.177892434062274
-0.18641414129441547
-0.1950557137126417
-0.20382380404642414
-0.2127250462449396
-0.22176605287145762
-0.23095341258081967
-0.24029368771619836
0.16524998978508196
0.1550085611766688
0.14493296235861763
0.13501588753899213
0.12525006045630374
0.11562823173802406
0.10614317611198054
0.09678768951100736
0.08755458610935937
0.0784366953273055
0.06942685883816252
0.060517927609763024
0.05170275901001543
0.04297421400388622
0.034325154466745236
0.0257484406366746
0.01723692872605533
0.008783468710468433
0.0003809023108044553
-0.007977938817834736
-0.016300234678347625
-0.024593178295447174
-0.03286397684295635
-0.04111985252832755
-0.04936804322974285
-0.0576158028827489
-0.06587040161481357
-0.07413912562766362
-0.08242927682860288
-0.09074817221337506
-0.09910314300446996
-0.10750153355008418
-0.11595069999032738
-0.12445800869876829
-0.13303083450846875
-0.14167655873379897
-0.15040256700044302
-0.15921624689795985
-0.16812498547102106
-0.17713616656742925
-0.18625716806309367
-0.19549535898630244
-0.20485809656600285
-0.21435272323116733
-0.2239865635908597
-0.2337669214272053
-0.24370107673607228
-0.2537962828529123
-0.2640597637038439
0.1799616633857028
0.16880233694291613
0.15782383397947186
0.14701819080467832
0.13637747654306753
0.1258937901280111
0.11555925713986334
0.10536602653330135
0.09530626729635241
0.08537216508123838
0.07555591884469473
0.0658497375328527
0.056245836843157024
0.046736436093126374
0.037313755223115294
0.027970011957621888
0.018697419147097865
0.009488182309727623
0.000334497390245173
-0.008771451249679946
-0.017837492596594624
-0.0268714704958949
-0.03588124489937317
-0.044874692843135416
-0.0538597091511156
-0.06284420686105756
-0.07183611737141912
-0.0808433903091792
-0.08987399311995672
-0.0989359103832683
-0.10803714285716115
-0.11718570625782565
-0.12638962978123686
-0.13565695437546801
-0.14499573077340822
-0.15441401729790466
-0.16391987745255635
-0.17352137731343492
-0.1832265827389781
-0.19304355641739362
-0.2029803547731961
-0.21304502475692416
-0.22324560054463327
-0.23359010017645584
-0.24408652216635057
-0.25474284211804776
-0.2655670093852013
-0.27656694381673197
-0.2877505326313746
0.1945922965877082
0.182518493189956
0.17064048431204415
0.15894965022624896
0.1474374074530993
0.1360952053560932
0.12491452257415761
0.11388686334095222
0.10300375373762838
0.09225673792297148
0.0816373743820364
0.07113723223149986
0.060747887617020394
0.050460920234878415
0.04026791000724779
0.030160433937506802
0.02013006316914353
0.0101683602690633
0.00026687675343805667
-0.009582849128508916
-0.019389294339208385
-0.0291609527154177
-0.03890633633996601
-0.04863397661585778
-0.05835242503785916
-0.06807025365848358
-0.0777960552469468
-0.08753844314124196
-0.0973060507949736
-0.10710753102207754
-0.11695155494397448
-0.1268468106451482
-0.1368020015446182
-0.14682584449241465
-0.15692706760132002
-0.16711440782652015
-0.17739660830710158
-0.1877824154854856
-0.1982805760229905
-0.20889983353201724
-0.21964892514777934
-0.23053657796516613
-0.2415715053691409
-0.25276240329005495
-0.2641179464183987
-0.27564678441675516
-0.28735753817010856
-0.2992587961190377
-0.3113591107237659
0.20913518078039084
0.19615060314112026
0.18337676598393127
0.17080439565808664
0.15842425835084284
0.14622715624584187
0.13420392351426508
0.12234542219243799
0.11064253799675769
0.09908617612374074
0.0876672570798385
0.07637671258240405
0.06520548156989922
0.054144506356089896
0.0431847289597011
0.032317087637742575
0.021532513647585627
0.010821928259814498
0.0001762400409749489
-0.010413657577652585
-0.020956888431112094
-0.031462595440813784
-0.04193994211444345
-0.05239811371894912
-0.06284631812176802
-0.07329378629731736
-0.0837497724975239
-0.09422355408675187
-0.10472443104307144
-0.11526172512927252
-0.12584477873851424
-0.13648295342094352
-0.14718562809912455
-0.1579621969817972
-0.168822067186659
-0.17977465608535104
-0.19082938838512198
-0.20199569296398637
-0.2132829994783636
-0.22470073476464647
-0.23625831905880518
-0.24796516206099115
-0.259830658875189
-0.271864185857251
-0.2840750964081177
-0.29647271675267417
-0.3090663417484286
-0.3218652307720963
-0.33487860373606604
0.22358361893389245
0.209692250696847
0.19602654127147978
0.18257656547494655
0.16933244171614403
0.15628432767678274
0.14342241582231016
0.13073692880113416
0.11821811478741111
0.10585624281915837
0.09364159817992884
0.08156447786862564
0.0696151861983436
0.05778403056140036
0.046061317394115515
0.03443734837125094
0.02290241685661805
0.011446804632972657
6.0778931168111456e-05
-0.011265410224703383
-0.022541532341622754
-0.03377737844036938
-0.04498276268747703
-0.05616752366965291
-0.0673415253060191
-0.07851465739540557
-0.08969683579773334