# vtk DataFile Version 2.0
mesh vtk view
ASCII
DATASET UNSTRUCTURED_GRID
POINTS 5151 double
0.0 1.0672038453407906 0.0
200.0 0.0 0.0
200.29336990927243 100.32048238263528 0.0
0.0 101.06540867139942 0.0
1.9965477249960626 1.0671009140828658 0.0
3.9930969628736452 1.0667921512723038 0.0
5.989649226346205 1.0662776497955992 0.0
7.986206027790311 1.0655575644530009 0.0
9.982768879074914 1.0646321119423812 0.0
11.979339291385621 1.0635015708360807 0.0
13.975918775044097 1.0621662815501716 0.0
15.97250883932021 1.0606266463054104 0.0
17.969110992237983 1.058883129078958 0.0
19.96572674037327 1.056936255545791 0.0
21.9623575886395 1.054786613008538 0.0
23.959005040062525 1.052434850314257 0.0
25.95567059554217 1.0498816777564992 0.0
27.95235575360298 1.0471278669607669 0.0
29.949062010127744 1.0441742507512675 0.0
31.94579085807234 1.0410217229966248 0.0
33.94254378716633 1.0376712384319322 0.0
35.93932228359463 1.034123812454325 0.0
37.93612782965931 1.0303805208888854 0.0
39.93296190342109 1.026442499721501 0.0
41.92982597831936 1.0223109447948882 0.0
43.926721522770116 1.0179871114637227 0.0
45.92364999974102 1.0134723142044306 0.0
47.92061286630309 1.008767926174839 0.0
49.9176115731585 1.0038753787184873 0.0
51.91464756414441 0.9987961608079505 0.0
53.91172227571263 0.9935318184211459 0.0
55.908837136385316 0.9880839538440357 0.0
57.90599356618729 0.9824542248927055 0.0
59.90319297605539 0.9766443440472468 0.0
61.9004367672261 0.9706560774892746 0.0
63.8977263306056 0.9644912440343394 0.0
65.89506304611486 0.9581517139498643 0.0
67.892448282017 0.9516394076485224 0.0
69.88988339424635 0.9449562942461621 0.0
71.8873697257128 0.9381043899727832 0.0
73.88490860560407 0.9310857564240211 0.0
75.8825013486859 0.9239024986397787 0.0
77.88014925460614 0.9165567629955697 0.0
79.87785360720818 0.9090507348910862 0.0
81.87561567386119 0.9013866362192513 0.0
83.87343670481492 0.893566722597648 0.0
85.8713179325882 0.8855932803427818 0.0
87.86926057140141 0.8774686231658484 0.0
89.86726581666426 0.8691950885668335 0.0
91.86533484453184 0.8607750339015893 0.0
93.8634688115437 0.8522108320940026 0.0
95.86166885436154 0.8435048669625502 0.0
97.85993608962427 0.8346595281272067 0.0
99.85827161393982 0.8256772054587561 0.0
101.8566765040371 0.8165602830281092 0.0
103.85515181710247 0.8073111325078011 0.0
105.85369859132953 0.7979321059716457 0.0
107.85231784671322 0.7884255280309468 0.0
109.85101058612356 0.7787936872368437 0.0
111.84977779670047 0.7690388266676736 0.0
113.84862045161233 0.759163133607501 0.0
115.84753951223188 0.7491687282065879 0.0
117.84653593078674 0.7390576509960644 0.0
119.84561065355216 0.7288318491065997 0.0
121.84476462466458 0.7184931610136436 0.0
123.843998790645 0.7080432995985831 0.0
125.84331410573866 0.6974838332745721 0.0
127.84271153820175 0.68681616487592 0.0
129.8421920776652 0.6760415079486579 0.0
131.84175674376175 0.6651608600038367 0.0
133.84140659626445 0.6541749722005629 0.0
135.84114274693798 0.6430843148084001 0.0
137.84096637345755 0.6318890376502578 0.0
139.84087873577886 0.6205889245401719 0.0
141.84088119544938 0.6091833404927525 0.0
143.84097523846953 0.5976711701770151 0.0
145.84116250247845 0.586050745695241 0.0
147.84144480924374 0.5743197612578855 0.0
149.84182420371468 0.5624751716572073 0.0
151.84230300126902 0.5505130705573431 0.0
153.84288384527846 0.5384285434346672 0.0
155.84356977779336 0.526215488400405 0.0
157.8443643270776 0.5138663959433751 0.0
159.8452716170141 0.501372075585108 0.0
161.84629650521967 0.48872131315004386 0.0
163.84744475931745 0.47590043621497885 0.0
165.84872328459795 0.4628927563628291 0.0
167.85014042192097 0.4496778435950718 0.0
169.851706343193 0.436230568132446 0.0
171.85343358489422 0.42251981357431473 0.0
173.8553377809747 0.40850671555692425 0.0
175.85743869048358 0.3941421979948092 0.0
177.85976167305648 0.37936344018345475 0.0
179.8623398656063 0.3640886580407671 0.0
181.86521750504917 0.34820914276015774 0.0
183.86845517624914 0.331576508705637 0.0
185.87213867504025 0.31398174666835105 0.0
187.87639410052466 0.2951155369733883 0.0
189.8814209650771 0.274504555377231 0.0
191.88754585927427 0.25129754447875197 0.0
193.89550239627556 0.22419460439914288 0.0
195.90675936468736 0.18840548585601152 0.0
197.93035417360434 0.14381567034998874 0.0
199.9449494477512 2.101181515677918 0.0
199.94116519940812 4.145588774768702 0.0
199.93785624008297 6.1705738195443764 0.0
199.9389163512616 8.188417688553931 0.0
199.9416730170731 10.202261842198014 0.0
199.9456069344031 12.213613297697567 0.0
199.95030950507564 14.22322622152203 0.0
199.9555670498047 16.231556111924135 0.0
199.96123923198647 18.238895345790375 0.0
199.96723266344637 20.24544369872069 0.0
199.97348177386093 22.25134336185365 0.0
199.97993926485788 24.256699036349346 0.0
199.98657023465037 26.261589951931022 0.0
199.99334853714504 28.266077464685644 0.0
200.00025439232647 30.270210044694156 0.0
200.00727276622607 32.274026662369096 0.0
200.01439223671008 34.277559152840844 0.0
200.02160417791382 36.28083390746187 0.0
200.02890215956225 38.283873109941126 0.0
200.03628149490746 40.28669565682987 0.0
200.04373889365627 42.289317854634746 0.0
200.05127219042765 44.291753955893 0.0
200.05888012837002 46.294016577228376 0.0
200.06656218354388 48.29611702963457 0.0
200.07431841968477 50.29806558261161 0.0
200.08214936569692 52.299871677849424 0.0
200.0900559101244 54.30154410400048 0.0
200.09803920817149 56.303091141125776 0.0
200.10610059777812 58.30452068125808 0.0
200.11424152191012 60.305840329948005 0.0
200.122463454678 62.307057492473604 0.0
200.13076782920032 64.30817944748145 0.0
200.13915596531288 66.30921341009469 0.0
200.14762899531667 68.31016658588163 0.0
200.15618778596686 70.31104621665305 0.0
200.16483285484588 72.31185961833523 0.0
200.17356427913538 74.3126142107471 0.0
200.18238159462078 76.31331753836744 0.0
200.1912836825297 78.31397728031345 0.0
200.20026864156188 80.31460124653665 0.0
200.20933364227577 82.31519735546509 0.0
200.21847476102596 84.31577358559285 0.0
200.22768679128092 86.31633788915018 0.0
200.23696303233234 88.31689804867828 0.0
200.24629506154133 90.3174614444903 0.0
200.25567251288774 92.31803467725958 0.0
200.26508293208465 94.31862294393993 0.0
200.27451192866474 96.31922897995565 0.0
200.28394436197433 98.31985129335386 0.0
198.29358024869254 100.32990354240891 0.0
196.2937993632588 100.33931782640576 0.0
194.2940347279358 100.34873560375239 0.0
192.2942877369972 100.35817208143048 0.0
190.29455545696874 100.36764167588629 0.0
188.2948323922081 100.3771567537149 0.0
186.29511156470684 100.38672741184077 0.0
184.2953851744683 100.39636156639743 0.0
182.29564502166807 100.40606513124467 0.0
180.29588278836871 100.41584221530474 0.0
178.29609023283177 100.42569531462618 0.0
176.29625932665175 100.43562549141123 0.0
174.29638235276215 100.44563253829067 0.0
172.29645197556255 100.45571512832358 0.0
170.29646129044752 100.46587095188774 0.0
168.29640385762937 100.47609684172625 0.0
166.29627372366016 100.48638888729876 0.0
164.2960654331183 100.49674253941006 0.0
162.29577403231195 100.50715270591746 0.0
160.29539506644622 100.51761383917382 0.0
158.2949245714261 100.52812001575214 0.0
156.2943590612709 100.53866500891642 0.0
154.29369551197934 100.54924235424883 0.0
152.2929313425698 100.55984540880752 0.0
150.29206439393963 100.5704674041702 0.0
148.29109290610853 100.5811014937076 0.0
146.2900154943497 100.59174079442835 0.0
144.2888311246502 100.60237842373563 0.0
142.28753908888797 100.61300753143799 0.0
140.2861389800624 100.62362132735626 0.0
138.28463066786276 100.63421310486801 0.0
136.28301427481807 100.6447762607272 0.0
134.2812901532243 100.65530431149122 0.0
132.27945886300967 100.66579090687819 0.0
130.2775211506595 100.67622984036716 0.0
128.27547792929158 100.6866150573398 0.0
126.27333025993573 100.69694066104749 0.0
124.2710793340886 100.70720091667084 0.0
122.26872645749947 100.71739025372102 0.0
120.26627303521616 100.72750326701407 0.0
118.26372055787812 100.73753471643016 0.0
116.26107058920608 100.74747952565164 0.0
114.25832475464927 100.75733278005515 0.0
112.25548473113899 100.76708972391519 0.0
110.25255223788962 100.77674575705949 0.0
108.24952902818598 100.78629643110044 0.0
106.24641688209283 100.7957374453516 0.0
104.24321760002097 100.80506464252407 0.0
102.23993299708472 100.81427400428456 0.0
100.2365648981866 100.82336164674514 0.0
98.23311513376645 100.8323238159439 0.0
96.22958553615481 100.8411568833654 0.0
94.22597793647294 100.84985734154228 0.0
92.22229416202492 100.85842179977023 0.0
90.21853603413052 100.8668469799629 0.0
88.2147053663509 100.87512971266666 0.0
86.21080396306287 100.88326693325007 0.0
84.20683361834014 100.89125567827868 0.0
82.20279611510432 100.89909308208176 0.0
80.19869322451079 100.90677637351416 0.0
78.19452670553824 100.9143028729142 0.0
76.1902983047532 100.92166998925592 0.0
74.18600975622438 100.92887521749226 0.0
72.1816627815582 100.93591613608429 0.0
70.17725909005215 100.94279040471045 0.0
68.17280037893943 100.94949576214876 0.0
66.16828833367512 100.95603002432456 0.0
64.16372462830674 100.9623910825156 0.0
62.159110925882494 100.96857690170594 0.0
60.154448878892865 100.97458551908066 0.0
58.14974012973678 100.98041504265221 0.0
56.14498631120377 100.98606365001052 0.0
54.14018904696558 100.99152958718815 0.0
52.135349952071245 100.9968111676326 0.0
50.13047063344021 101.00190677127793 0.0
48.12555269035013 101.006814843708 0.0
46.12059771491554 101.01153389540443 0.0
44.115607292554465 101.01606250107207 0.0
42.110583002441345 101.02039929903582 0.0
40.10552641794448 101.02454299070244 0.0
38.10043910704637 101.02849234008178 0.0
36.09532263274684 101.03224617336177 0.0
34.09017855344812 101.03580337853262 0.0
32.085008423321526 101.03916290505495 0.0
30.079813792656164 101.0423237635681 0.0
28.074596208189874 101.04528502563417 0.0
26.06935721342278 101.04804582351436 0.0
24.064098348913838 101.05060534997419 0.0
22.05882115256164 101.05296285811447 0.0
[...]
POINT_DATA 5151
SCALARS DISPL_X float 1
LOOKUP_TABLE default
0.0
0.0
-1.369059576604673
0.0
0.016110616648119053
0.0322141731831017
0.04830361027447376
0.06437187016303575
0.0804118974613994
0.09641663997238162
0.11237904953120087
0.12829208287742797
0.14414870256260304
0.15994187789944647
0.1756645859584915
0.19130981261799818
0.2068705536729064
0.22233981600852237
0.23771061884451394
0.2529759950546335
0.2681289925675404
0.28316267585373445
0.2980701275034495
0.3128444499000359
0.32747876699298123
0.3419662261743178
0.35630000026161446
0.37047328959019665
0.3844793242165232
0.39831136623384733
0.4119627122004159
0.4254266956793672
0.4386966898883493
0.45176611045551496
0.4646284182770923
0.477277122469995
0.4897057834110429
0.5019080158523387
0.5138774921000826
0.5256079452412608
0.537093172400097
0.548327038002895
0.5593034770264815
0.5700164982016651
0.5804601871390178
0.5906287093396864
0.600516313049029
0.610117331905371
0.6194261873301825
0.6284373905994662
0.6371455445288357
0.6455453446968392
0.6536315801222286
0.661399133301049
0.6688429794984663
0.6759581851779101
0.6827399054361989
0.6891833802974556
0.6952839297004239
0.7010369469928394
0.70643789072202
0.7114822744821138
0.7161656545444901
0.7204836149571723
0.7244317497504598
0.7280056418268201
0.7312008380410642
0.7340128198883411
0.73643696910794
0.7384685273748193
0.7401025490802526
0.741333845988122
0.7421569222813666
0.7425658981660141
0.7425544197549689
0.7421155523785867
0.7412416537210285
0.7399242222010891
0.7381537147214547
0.7359193261852637
0.7332087208588359
0.7300077025072469
0.726299805898301
0.7220657862460165
0.7172829746708962
0.7119244555993031
0.7059580043410937
0.6993446968850254
0.6920370643330691
0.6839766031121104
0.675090354787298
0.6652861104634813
0.6544455251745118
0.6424139599929093
0.6289849759774968
0.6138758437618907
0.5966861827875255
0.5768275305782762
0.5533688293848356
0.5247859898489563
0.48765548389384217
0.43512296469000644
0.32501385646211545
0.25690257716099696
0.27456240276208044
0.2900042129461672
0.28505702744583356
0.2721925869922035
0.2538343061189865
0.23188897631365435
0.20735376757805218
0.18088358406315405
0.152914237250262
0.1237517219823737
0.0936167639965425
0.06267223829827884
0.031040159989796076
-0.0011871641901873486
-0.033939575721598864
-0.06716377131371766
-0.1008194969310991
-0.13487674462381638
-0.169313642901471
-0.20411483706258232
-0.23927022199576053
-0.27477393239340464
-0.3106235232047674
-0.3468192918622164
-0.38336370658563457
-0.4202609139138091
-0.4575163048002292
-0.4951361229645289
-0.5331271022472168
-0.5714961218307284
-0.6102498696014791
-0.6493945047935044
-0.6889353114777108
-0.7288763345120974
-0.7692199892807504
-0.8099666359650722
-0.8511141082302607
-0.8926571851386421
-0.9345869939554285
-0.9768903306202076
-1.0195488847877856
-1.0625383593110072
-1.105827484217543
-1.1493769538595093
-1.1931383934761803
-1.2370536830617715
-1.2810556671020614
-1.3250736892135906
-1.3700411604988183
-1.37106369507534
-1.3721620635016691
-1.3733427723886336
-1.3745921321889307
-1.375884496573052
-1.3771873015009457
-1.3784641469881653
-1.3796767671874741
-1.380786345057559
-1.381754419152191
-1.382543523578756
-1.3831176453609706
-1.3834425516964586
-1.3834860210935154
-1.3832180012091757
-1.3826107092865625
-1.381638686691667
-1.380278816195702
-1.3785103087561748
-1.3763146652620732
-1.373675617804937
-1.3705790543779672
-1.3670129304006933
-1.3629671700601653
-1.3584335601154238
-1.3534056385079474
-1.3478785798435737
-1.3418490795536488
-1.3353152383012006
-1.328276447970154
-1.3207332803619463
-1.3126873795247764
-1.3041413584567967
-1.2950987007565007
-1.2855636676418074
-1.2755412106240231
-1.2650368900040572
-1.2540567992547884
-1.2426074952660602
-1.2306959343551376
-1.2183294138852303
-1.2055155192867342
-1.1922620762388219
-1.1785771077417293
-1.164468795791393
-1.1499454473567172
-1.135015464354706
-1.1196873173188866
-1.1039695224609591
-1.0878706218335197
-1.0713991663124798
-1.0545637011304139
-1.0373727537063042
-1.0198348235323405
-1.0019583738941233
-0.9837518252165853
-0.9652235498438257
-0.9463818680766738
-0.9272350453068998
-0.9077912901015309
-0.8880587531046145
-0.8680455266367693
-0.8477596448851226
-0.8272090845878819
-0.806401766128146
-0.7853455549610597
-0.7640482633083403
-0.7425176520615064
-0.7207614328429597
-0.6987872701808582
-0.6766027837597833
-0.6542155507147154
-0.6316331079407733
-0.6088629543955766
-0.5859125533750014
-0.5627893347465752
-0.5395006971278453
-0.5160540099997484
-0.49245661574735744
-0.46871583162249775
-0.4448389516244767
-0.4208332482967748
-0.39670597443886146
-0.3724643647334546
-0.3481156372905589
-0.32366699511044117
-0.2991256274683606
-0.2744987112245608
-0.24979341206346278
-0.22501688566641093
-0.200176278822691
-0.1752787304837919
-0.1503313727661147
-0.12534133190752797
-0.10031572918327919
-0.07526168178689316
-0.050186303681810845
-0.025096706429511992
0.0
0.0
0.0
0.0
0.0
0.0
0.0
0.0
0.0
0.0
0.0
0.0
0.0
0.0
0.0
0.0
0.0
0.0
0.0
0.0
0.0
0.0
0.0
0.0
0.0
0.0
0.0
0.0
0.0
0.0
0.0
0.0
0.0
0.0
0.0
0.0
0.0
0.0
0.0
0.0
0.0
0.0
0.0
0.0
0.0
0.0
0.0
0.0
0.0
0.015158077881472177
0.01422131784516852
0.013299667314549709
0.012392459648969987
0.011499030623083103
0.010618718239332664
0.009750862525156861
0.008894805318301814
0.008049890043514873
0.007215461483755866
0.00639086554888482
0.005575449044649456
0.004768559444598882
0.003969544667386014
0.0031777528617290144
0.0023925322011094296
0.001613230690121557
0.0008391959841764194
6.977522410052125e-05
-0.0006956851130340202
-0.0014578393456513333
-0.0022173427009977067
-0.0029748514092027122
-0.003731022777420004
-0.00448651524351896
-0.0052419884089644885
-0.005998103050670177
-0.006755521111765691
-0.007514905671356328
-0.008276920893498428
-0.009042231955737036
-0.009811504957737867
-0.010585406810646871
-0.011364605108004064
-0.01214976797911814
-0.012941563926047665
-0.013740661645433444
-0.014547729836632873
-0.015363436997734854
-0.016188451211254784
-0.017023439921465672
-0.017869069705514856
-0.018726006040676174
-0.019594913070261594
-0.020476453370935142
-0.021371287724348043
-0.022280074896208455
-0.023203471426092977
-0.024142131431460906
0.030309383737664536
0.028436150012541322
0.02659313365599423
0.02477900150072141
0.02299242522379485
0.02123208096908183
0.019496648939171093
0.01778481296361955
0.016095260050072238
0.014426679924528372
0.012777764566698577
0.011147207746088739
0.00953370456407969
0.007935951006915623
0.006352643514153879
0.004782478566733337
0.0032241522984727145
0.0016763601344213807
0.00013779645913003676
-0.001392845682501922
-0.0029168748493698525
-0.00443560143139261
-0.005950337838077263
-0.007462398647130077
-0.008973100712085834
-0.010483763228182282
-0.011995707756105624
-0.01351025820346307
-0.015028740764134005
-0.0165524838159608
-0.01808281777748245
-0.019621074924736873
-0.021168589169445542
-0.022726695800174276
-0.02429673118832782
-0.025880032461237892
-0.02747793714485186
-0.02909178277887525
-0.0307229065075705
-0.032372644649774046
-0.034042332252046045
-0.035733302629254664
-0.0374468868972709
-0.03918441350285502
-0.04094720775618283
-0.042736591371864835
-0.04455388202471869
-0.04640039292685698
-0.04827743243307593
0.04544714628982571
0.04263801152257185
0.039874198690754696
0.037153708330064567
0.03447454827714437
0.031834733096801626
0.029232283463689484
0.026665225508716354
0.024131590140047267
0.021629412348115155
0.019156730503604346
0.016711585656849038
0.014292020846573883
0.01189608042534876
0.009521809408580915
0.007167252853289832
0.004830455272370295
0.002509460089473051
0.0002023091390875934
-0.002092957784179653
-0.004378303323523592
-0.006655692902158098
-0.008927095007298377
-0.011194481413918312
-0.013459827346747548
-0.015725111579422506
-0.017992316470175906
-0.020263427933882805
-0.022540435350684562
-0.024825331411872376
-0.02712011190411595
-0.02942677543355144
-0.031747323091676175
-0.03408375806546878
-0.036438085194481065
-0.03881231047830308
-0.04120844053812647
-0.043628482036686095
-0.04607444106137037
-0.04854832247581829
-0.05105212924587306
-0.053587861746325995
-0.0561575170554671
-0.058763088245039716
-0.06140656367378611
-0.06408992629338221
-0.0668151529761111
-0.0695842138741995
-0.07239907182127578
0.06056459575748209
0.056820418796701404
0.05313666336808889
0.049510664058977416
0.04593976525537108
0.04242132036619799
0.03895269098727
0.03553124601868661
0.032154360748873984
0.028819415917880464
0.025523796771897332
0.022264892120308438
0.019040093405832126
0.015846793797604848
0.01268238731630704
0.009544267999661453
0.006429829115883556
0.0033364624319268737
0.0002615575426122129
-0.0027974987340539624
-0.005843322890584134
-0.008878535188893734
-0.011905760041015765
-0.014927626308993299
-0.01794676752193943
-0.020965822008836267
-0.023987432946262544
-0.027014248320798538
-0.03004892080644478
-0.0330941075579332
-0.03615246992139472
-0.03922667306438763
-0.04231938552787243
-0.04543327870334808
-0.04857102623878046
-0.0517353033778471
-0.054928786237435565
-0.058154151029070913
-0.06141407323064228
-0.06471122671548603
-0.06804828284662899
-0.07142790954474884
-0.07485277033918643
-0.07832552341213403
-0.08184882064691743
-0.0854253066921006
-0.08905761805389614
-0.09274838223015935
-0.09650021689994451
0.07565496462061269
0.07097689036906746
0.06637433057094934
0.061843954337942306
0.05738244313272212
0.052986489779880096
0.04865279740214783
0.04437807829918851
0.040159052785533195
0.03599244800351126
0.03187499672619694
0.027803436164528874
0.023774506791845264
0.019784951198160892
0.015831512985553457
0.011910935715073182
0.008019961914645202
0.004155332156473389
0.00031378421154136613
-0.003507947712189826
-0.007313133641940786
-0.01110504841785932
-0.014886972172213854
-0.018662190706731457
-0.02243399576561471
-0.026205685202485805
-0.029980563040248057
-0.033761939423582715
-0.03755313046450539
-0.04135745798209216
-0.04517824913818541
-0.04901883597158438
-0.052882554833936835
-0.056772745731313176
-0.0606927515759855
-0.06464591735401283
-0.06863558921477003
-0.07266511348948357
-0.07673783564666632
-0.0808570991932517
-0.08502624453113494
-0.0892486077797707
-0.09352751957647903
-0.09786630386709291
-0.1022682767005986
-0.1067367450424101
-0.11127500562194817
-0.11588634383113974
-0.12057403269140377
0.09071148839743112
0.08510094761161256
0.07958100577812663
0.07414766713653295
0.06879695089756283
0.06352489002766895
0.05832752994492063
0.05320092714711637
0.04814114779214984
0.043144266249727614
0.03820636364257894
0.033323526394160044
0.028491844798824596
0.023707411629245417
0.018966320794737375
0.014264666062979558
0.00959853985645176
0.00496403213377354
0.0003572293650329801
-0.004225786391064315
-0.008788938301114171
-0.013336155456318353
-0.017871373452306688
-0.022398534845542724
-0.026921589483379693
-0.031444494705745445
-0.03597121541725656
-0.040505724029452767
-0.045052000273677145
-0.049614030885938604
-0.0541958091659305
-0.05880133441317747
-0.06343461124415153
-0.06809964879510948
-0.0728004598160048
-0.07754105966216135
-0.08232546519100253
-0.08715769357224531
-0.09204176102097034
-0.09698168146404951
-0.10198146515152284
-0.1070451172256549
-0.11217663626159483
-0.11738001279478566
-0.1226592278514746
-0.12801825149992235
-0.1334610414411429
-0.13899154165918745
-0.14461368115214723
0.10572740644297249
0.0991861154770451
0.09275049774138426
0.08641589334627857
0.08017766007421173
0.07403117192225123
0.06797181754239866
0.06199499860446596
0.056096128105024706
0.05027062864487716
0.04451393069626475
0.0388214708797887
0.03318869026969046
0.027611032744780308
0.02208394340093183
0.01660286703971595
0.011163246746324514
0.005760522568631749
0.00039013030791835903
-0.004952499569666114
-0.01027194289267697
-0.015572782608476124
-0.020859609466180814
-0.02613702255402197
-0.03140962968773285
-0.03668204764764512
-0.04195890226316959
-0.04724482834433683
-0.05254446946101643
-0.057862477571396086
-0.06320351250224004
-0.06857224128438164
-0.073973337347882
-0.07941147958233669
-0.08489135126853153
-0.09041763888915345
-0.09599503082698421
-0.1016282159602826
-0.107321882166258
-0.11308071474474932
-0.11890939477554635
-0.12481259742413206
-0.13079499021201596
-0.1368612312692807
-0.1430159675884013
-0.14926383329988036
-0.155609447991708
-0.1620574150960964
-0.16861232036831758
0.12069596277360542
0.11322592326402076
0.10587661918123806
0.09864272739876243
0.0915189452568006
0.08449998884388621
0.07758059116379412
0.07075550021607718
0.06401947701737593
0.05736729358932506
0.050793730937461756
0.044293577044049987
0.03786162489619939
0.03149267056907436
0.025181511382375562
0.018922944146702946
0.01271176351481668
0.00654276045122316
0.00041072083204655215
-0.005689575814535796
-0.011763357418021259
-0.017815860318116716
-0.023852330053721393
-0.029878021983365685
-0.03589820173335584
-0.04191814547103821
-0.04794314000175441
-0.05397848268914793
-0.060029481199579474
-0.06610145307245058
-0.07219972511931591
-0.07832963265570243
-0.08449651857063942
-0.09070573224009304
-0.09696262829130256
-0.10327256522672415
-0.10964090391707138
-0.11607300597444656
-0.12257423201786627
-0.12914993984489354
-0.13580548252462338
-0.1425462064287773
-0.14937744921930346
-0.15630453781254383
-0.16333278634171927
-0.17046749414121348
-0.17771394377786837
-0.18507739915618296
-0.19256310372598368
0.13561040692262688
0.12721390540889416
0.1189531875049696
0.11082226790184743
0.10281518465740969
0.09492599719581887
0.08714878418035399
0.07947764129190762
0.07190667894398964
0.06443001996350263
0.05704179726493226
0.04973615154385424
0.04250722901386926
0.035349179209283224
0.028256152873979812
0.02122229995510974
0.01424176771842264
0.007308699000265719
0.0004172306095552187
-0.00643850810882925
-0.013264396538935085
-0.020066323878797615
-0.026850190038653132
-0.033621906346814896
-0.04038739605913347
-0.04715259466922994
-0.05392345001799492
-0.06070592220202859
-0.06750598328192493
-0.07432961679243597
-0.08118281705773522
-0.08807158831616008
-0.09500194365999307
-0.1019799037971297
-0.10901149564242932
-0.11610275074834388
-0.12325970358538821
-0.1304883896846229
-0.13779484365581968
-0.1451850970965594
-0.15266517640922367
-0.16024110054460697
-0.16791887869268704
-0.17570450794301223
-0.18360397093915073
-0.19162323355358613
-0.19976824261147652
-0.20804492369367641
-0.21645917905135523
0.15046399483198006
0.14114360230829168
0.1319740255503748
0.12294861829680159
0.11406076067059293
0.10530385687193058
0.09667133273344862
0.08815663317434691
0.07975321958793365
0.07145456719540932
0.06325416239681238
0.05514550014804316
0.04712208139086441
0.039177410560684495
0.03130499319482856
0.02349833366194371
0.01575093303110151
0.008056287097182546
0.0004078845771595789
-0.007200794510163384
-0.014776280269729044
-0.022325114152270648
-0.029853849965220204
-0.03736905466657095
-0.04487730893729898
-0.052385207529393296
-0.0598993593879142
-0.06742638754682066
-0.0749729287996167
-0.08254563314710488
-0.09015116302581291
-0.09779619232189382
-0.10548740517659583
-0.11323149459079032
-0.12103516083706001
-0.1289051096898286
-0.13684805048504795
-0.1448706940227684
-0.15297975032751499
-0.16118192628321104
-0.16948392316124516
-0.177892434062274
-0.18641414129441547
-0.1950557137126417
-0.20382380404642414
-0.2127250462449396
-0.22176605287145762
-0.23095341258081967
-0.24029368771619836
0.16524998978508196
0.1550085611766688
0.14493296235861763
0.13501588753899213
0.12525006045630374
0.11562823173802406
0.10614317611198054
0.09678768951100736
0.08755458610935937
0.0784366953273055
0.06942685883816252
0.060517927609763024
0.05170275901001543
0.04297421400388622
0.034325154466745236
0.0257484406366746
0.01723692872605533
0.008783468710468433
0.0003809023108044553
-0.007977938817834736
-0.016300234678347625
-0.024593178295447174
-0.03286397684295635
-0.04111985252832755
-0.04936804322974285
-0.0576158028827489
-0.06587040161481357
-0.07413912562766362
-0.08242927682860288
-0.09074817221337506
-0.09910314300446996
-0.10750153355008418
-0.11595069999032738
-0.12445800869876829
-0.13303083450846875
-0.14167655873379897
-0.15040256700044302
-0.15921624689795985
-0.16812498547102106
-0.17713616656742925
-0.18625716806309367
-0.19549535898630244
-0.20485809656600285
-0.21435272323116733
-0.2239865635908597
-0.2337669214272053
-0.24370107673607228
-0.2537962828529123
-0.2640597637038439
0.1799616633857028
0.16880233694291613
0.15782383397947186
0.14701819080467832
0.13637747654306753
0.1258937901280111
0.11555925713986334
0.10536602653330135
0.09530626729635241
0.08537216508123838
0.07555591884469473
0.0658497375328527
0.056245836843157024
0.046736436093126374
0.037313755223115294
0.027970011957621888
0.018697419147097865
0.009488182309727623
0.000334497390245173
-0.008771451249679946
-0.017837492596594624
-0.0268714704958949
-0.03588124489937317
-0.044874692843135416
-0.0538597091511156
-0.06284420686105756
-0.07183611737141912
-0.0808433903091792
-0.08987399311995672
-0.0989359103832683
-0.10803714285716115
-0.11718570625782565
-0.12638962978123686
-0.13565695437546801
-0.14499573077340822
-0.15441401729790466
-0.16391987745255635
-0.17352137731343492
-0.1832265827389781
-0.19304355641739362
-0.2029803547731961
-0.21304502475692416
-0.22324560054463327
-0.23359010017645584
-0.24408652216635057
-0.25474284211804776
-0.2655670093852013
-0.27656694381673197
-0.2877505326313746
0.1945922965877082
0.182518493189956
0.17064048431204415
0.15894965022624896
0.1474374074530993
0.1360952053560932
0.12491452257415761
0.11388686334095222
0.10300375373762838
0.09225673792297148
0.0816373743820364
0.07113723223149986
0.060747887617020394
0.050460920234878415
0.04026791000724779
0.030160433937506802
0.02013006316914353
0.0101683602690633
0.00026687675343805667
-0.009582849128508916
-0.019389294339208385
-0.0291609527154177
-0.03890633633996601
-0.04863397661585778
-0.05835242503785916
-0.06807025365848358
-0.0777960552469468
-0.08753844314124196
-0.0973060507949736
-0.10710753102207754
-0.11695155494397448
-0.1268468106451482
-0.1368020015446182
-0.14682584449241465
-0.15692706760132002
-0.16711440782652015
-0.17739660830710158
-0.1877824154854856
-0.1982805760229905
-0.20889983353201724
-0.21964892514777934
-0.23053657796516613
-0.2415715053691409
-0.25276240329005495
-0.2641179464183987
-0.27564678441675516
-0.28735753817010856
-0.2992587961190377
-0.3113591107237659
0.20913518078039084
0.19615060314112026
0.18337676598393127
0.17080439565808664
0.15842425835084284
0.14622715624584187
0.13420392351426508
0.12234542219243799
0.11064253799675769
0.09908617612374074
0.0876672570798385
0.07637671258240405
0.06520548156989922
0.054144506356089896
0.0431847289597011
0.032317087637742575
0.021532513647585627
0.010821928259814498
0.0001762400409749489
-0.010413657577652585
-0.020956888431112094
-0.031462595440813784
-0.04193994211444345
-0.05239811371894912
-0.06284631812176802
-0.07329378629731736
-0.0837497724975239
-0.09422355408675187
-0.10472443104307144
-0.11526172512927252
-0.12584477873851424
-0.13648295342094352
-0.14718562809912455
-0.1579621969817972
-0.168822067186659
-0.17977465608535104
-0.19082938838512198
-0.20199569296398637
-0.2132829994783636
-0.22470073476464647
-0.23625831905880518
-0.24796516206099115
-0.259830658875189
-0.271864185857251
-0.2840750964081177
-0.29647271675267417
-0.3090663417484286
-0.3218652307720963
-0.33487860373606604
0.22358361893389245
0.209692250696847
0.19602654127147978
0.18257656547494655
0.16933244171614403
0.15628432767678274
0.14342241582231016
0.13073692880113416
0.11821811478741111
0.10585624281915837
0.09364159817992884
0.08156447786862564
0.0696151861983436
0.05778403056140036
0.046061317394115515
0.03443734837125094
0.02290241685661805
0.011446804632972657
6.0778931168111456e-05
-0.011265410224703383
-0.022541532341622754
-0.03377737844036938
-0.04498276268747703
-0.05616752366965291
-0.0673415253060191
-0.07851465739540557
-0.08969683579773334