# vtk DataFile Version 2.0
mesh vtk view
ASCII
DATASET UNSTRUCTURED_GRID
POINTS 5151 double
0.0 -0.3373741188496693 0.0
200.0 0.0 0.0
199.90725725448806 99.89868621452175 0.0
0.0 99.66319338775115 0.0
2.0010913643456703 -0.3373415792907124 0.0
4.002182250425745 -0.33724397040221216 0.0
6.003272180027301 -0.3370813215482862 0.0
8.004360675043664 -0.3368536816657873 0.0
10.005447257529465 -0.33656111925920434 0.0
12.00653144975571 -0.3362037223933416 0.0
14.007612774266722 -0.3357815986836025 0.0
16.008690753938176 -0.3352948752836458 0.0
18.00976491203905 -0.33474369887012206 0.0
20.010834772296985 -0.3341282356241533 0.0
22.01189985896512 -0.33344867120915067 0.0
24.012959696893038 -0.33270521074450704 0.0
26.01401381160107 -0.3318980787746351 0.0
28.015061729362063 -0.33102751923275847 0.0
30.016102977285733 -0.3300937953987878 0.0
32.01713708340572 -0.32909718985054587 0.0
34.018163576775244 -0.328038004407514 0.0
36.019181987568125 -0.32691656006620595 0.0
38.02019184718563 -0.32573319692616376 0.0
40.02119268836986 -0.3244882741055068 0.0
42.022184045323826 -0.32318216964483565 0.0
44.02316545383864 -0.32181528039820906 0.0
46.02413645142771 -0.3203880219097877 0.0
48.02509657746862 -0.3189008282746265 0.0
50.02604537335229 -0.3173541519819733 0.0
52.02698238263985 -0.31574846373928755 0.0
54.02790715122721 -0.3140842522750718 0.0
56.028819227517005 -0.3123620241184371 0.0
58.0297181625982 -0.3105823033531778 0.0
60.0306035104327 -0.3087456313439683 0.0
62.03147482804894 -0.3068525664320932 0.0
64.0323316757446 -0.30490368359795245 0.0
66.03317361728885 -0.30289957408737644 0.0
68.03400022012835 -0.30084084499856517 0.0
70.03481105561283 -0.29872811882620603 0.0
72.03560569920941 -0.29656203295913786 0.0
74.03638373072336 -0.2943432391275938 0.0
76.03714473451898 -0.292072402795801 0.0
78.03788829973988 -0.28975020249537364 0.0
80.03861402052588 -0.28737732909460145 0.0
82.03932149622482 -0.2849544849983439 0.0
84.04001033159643 -0.2824823832728048 0.0
86.04068013700572 -0.2799617466890084 0.0
88.04133052860239 -0.27739330667823586 0.0
90.04196112848273 -0.2747778021920957 0.0
92.04257156482994 -0.2721159784592121 0.0
94.04316147202833 -0.2694085856297169 0.0
96.04373049074609 -0.2666563772978384 0.0
98.04427826798131 -0.2638601088918266 0.0
100.04480445706436 -0.26102053591921964 0.0
102.04530871760993 -0.2581384120540474 0.0
104.0457907154107 -0.2552144870508532 0.0
106.04625012226361 -0.25224950446845573 0.0
108.04668661571877 -0.2492441991839767 0.0
110.04709987873954 -0.24619929467487314 0.0
112.0474895992625 -0.24311550004332905 0.0
114.04785546964085 -0.23999350675333897 0.0
116.04819718595678 -0.23683398504595354 0.0
118.04851444718362 -0.2336375799923042 0.0
120.04880695417602 -0.23040490713692507 0.0
122.04907440846517 -0.22713654767528085 0.0
124.04931651082842 -0.22383304309890692 0.0
126.04953295960092 -0.2204948892287357 0.0
128.0497234486956 -0.21712252954141986 0.0
130.04988766526614 -0.21371634767409184 0.0
132.05002528696608 -0.21027665896895478 0.0
134.05013597877004 -0.20680370088921016 0.0
136.05021938921664 -0.20329762210072003 0.0
138.0502751460088 -0.1997584699668557 0.0
140.05030285083768 -0.19618617614495756 0.0
142.05030207327889 -0.19258053989770882 0.0
144.0502723435643 -0.18894120863660477 0.0
146.0502131439887 -0.1852676550907536 0.0
148.0501238986387 -0.181559150333138 0.0
150.05000396104626 -0.1778147316851816 0.0
152.0498525992531 -0.17403316424070847 0.0
154.04966897761284 -0.17021289437612058 0.0
156.04945213444518 -0.1663519931072248 0.0
158.04920095436322 -0.16244808645951855 0.0
160.04891413368807 -0.15849826905593734 0.0
162.04859013678583 -0.15449899577001383 0.0
164.0482271403436 -0.150445944351832 0.0
166.04782296139828 -0.14633383910824918 0.0
168.04737496316227 -0.14215622152360333 0.0
170.0468799300003 -0.1379051473450958 0.0
172.0463338987673 -0.13357077977510592 0.0
174.0457319271175 -0.12914083265993087 0.0
176.04506776864193 -0.12459979162416547 0.0
178.04433340642368 -0.11992779721928568 0.0
180.04351836492228 -0.11509899512256508 0.0
182.04260865956448 -0.11007901932417889 0.0
184.04158513771563 -0.1048209608166207 0.0
186.0404206768218 -0.09925874572096259 0.0
188.03907541329605 -0.0932945891077163 0.0
190.03748627548427 -0.0867788594418343 0.0
192.03555001862338 -0.07944244954489578 0.0
194.03303472629537 -0.07087442332618064 0.0
196.02947607177967 -0.05956044391577137 0.0
198.0220170676849 -0.04546430869128675 0.0
200.01740307780767 1.9680135853560103 0.0
200.01859938857422 3.953975161503743 0.0
200.01964544668346 5.946076663466717 0.0
200.01931031476246 7.940435698415553 0.0
200.0184388526672 9.936059159512634 0.0
200.0171952271887 11.932470634861687 0.0
200.01570860807286 13.929431710543572 0.0
200.0140465455456 15.926798390338279 0.0
200.0122534040817 17.924478245424968 0.0
200.01035870639438 19.92240812093656 0.0
200.00838318116655 21.920543066126026 0.0
200.00634178078687 23.91884998191694 0.0
200.00424553872344 25.917303821493586 0.0
200.00210272051544 27.915885188415558 0.0
199.99991957920003 29.91457875988308 0.0
199.99770086745113 31.913372216219088 0.0
199.9954501961368 33.912255493420396 0.0
199.9931702921434 35.91122024840685 0.0
199.9908631882674 37.91025946826394 0.0
199.98853036612604 39.90936717924319 0.0
199.9861728658764 41.90853822638443 0.0
199.98379137205836 43.90776810404685 0.0
199.98138628199916 45.907052823749424 0.0
199.9789577613313 47.90638880975862 0.0
199.9765057899061 49.90577281558737 0.0
199.9740302005216 51.90520185644336 0.0
199.97153071228325 53.90467315397841 0.0
199.96900695999742 55.90418409062479 0.0
199.9664585207024 57.90373217148187 0.0
199.96388493823486 59.903314992214284 0.0
199.96128574658567 61.90293021179868 0.0
199.9586604927044 63.90257552924683 0.0
199.9560087593527 65.90224866366064 0.0
199.95333018857733 67.90194733713595 0.0
199.95062450637175 69.90166926032586 0.0
199.94789154911325 71.90141212045361 0.0
199.94513129240238 73.90117357189912 0.0
199.94234388299085 75.90095122963355 0.0
199.93952967455513 77.90074266606501 0.0
199.9366892681514 79.90054541224113 0.0
199.93382355824832 81.90035696491687 0.0
199.93093378522406 83.90017480185863 0.0
199.92802159501443 85.89999640913555 0.0
199.92508910590783 87.89981932646042 0.0
199.92213898054501 89.89964122070201 0.0
199.9191744959258 91.89946000519578 0.0
199.91619958921194 93.89927403703383 0.0
199.91321880964793 95.89908245146906 0.0
199.91023694363392 97.89888572015116 0.0
197.90719076010944 99.89570791239976 0.0
195.90712149165233 99.89273178391043 0.0
193.90704708606347 99.88975455107182 0.0
191.9069671025724 99.88677140651552 0.0
189.90688246853574 99.88377779278433 0.0
187.90679492128518 99.88076980043851 0.0
185.906706666772 99.8777442375471 0.0
183.90662017080157 99.8746986015905 0.0
181.90653802557648 99.87163102302587 0.0
179.90646286063821 99.86854020290366 0.0
177.90639728143952 99.86542535215044 0.0
175.90634382599268 99.86228613497323 0.0
173.90630493388616 99.85912261692746 0.0
171.90628292411634 99.8559352174977 0.0
169.90627997942943 99.85272466682258 0.0
167.90629813562936 99.84949196616395 0.0
165.9063392747738 99.84623835175717 0.0
163.9064051214799 99.84296526173488 0.0
161.90649724175353 99.83967430587126 0.0
159.90661704388458 99.8363672379386 0.0
157.9067657810388 99.83304593050417 0.0
155.90694455523558 99.82971235201997 0.0
153.90715432244968 99.82636854607618 0.0
151.90739589860428 99.82301661269956 0.0
149.90766996625445 99.8196586915849 0.0
147.90797708178104 99.8162969471505 0.0
145.90831768293637 99.81293355530975 0.0
143.90869209660212 99.80957069185132 0.0
141.90910054663598 99.8062105223196 0.0
139.90954316170277 99.80285519328737 0.0
137.91001998299745 99.7995068249127 0.0
135.91053097178514 99.79616750467333 0.0
133.91107601669472 99.79283928217374 0.0
131.91165494071677 99.78952416492238 0.0
129.91226750786552 99.7862241149807 0.0
127.9129134294774 99.78294104638935 0.0
125.91359237011919 99.77967682328176 0.0
123.91430395312892 99.77643325860083 0.0
121.91504776572806 99.77321211333981 0.0
119.9158233637402 99.77001509623426 0.0
117.91663027593094 99.7668438638382 0.0
115.91746800796288 99.76370002092303 0.0
113.91833604598406 99.76058512114386 0.0
111.91923385986796 99.75750066792358 0.0
109.92016090612098 99.75444811551023 0.0
107.9211166304789 99.75142887016825 0.0
105.92210047021159 99.7484442914695 0.0
103.92311185615688 99.74549569365368 0.0
101.92415021450446 99.74258434703262 0.0
99.92521496834968 99.73971147941604 0.0
97.92630553903736 99.73687827754031 0.0
95.9274213473146 99.73408588848449 0.0
93.92856181431081 99.73133542106083 0.0
91.92972636236212 99.72862794716941 0.0
89.93091441569652 99.7259645031085 0.0
87.93212540099458 99.72334609083441 0.0
85.9333587478405 99.72077367916611 0.0
83.93461388907544 99.71824820493126 0.0
81.9358902610661 99.71577057405158 0.0
79.93718730389888 99.71334166256649 0.0
77.9385044615096 99.71096231759486 0.0
75.9398411817578 99.70863335823522 0.0
73.941196916454 99.70635557640567 0.0
71.94257112134176 99.70412973762497 0.0
69.94396325605778 99.7019565817367 0.0
67.94537278406827 99.69983682357878 0.0
65.94679917255247 99.69777115360063 0.0
63.94824189229535 99.69576023843055 0.0
61.94970041755916 99.69380472139619 0.0
59.95117422594361 99.6919052230003 0.0
57.95266279823876 99.6900623413551 0.0
55.95416561827244 99.68827665257731 0.0
53.9556821727548 99.68654871114697 0.0
51.957211951122055 99.68487905023227 0.0
49.95875444538026 99.68326818198311 0.0
47.960309149951286 99.68171659779554 0.0
45.96187556152158 99.68022476854956 0.0
43.96345317889444 99.67879314482238 0.0
41.965041502846944 99.677422157079 0.0
39.966640035991766 99.67611221584245 0.0
37.96824828264408 99.67486371184512 0.0
35.969865748694225 99.67367701616305 0.0
33.97149194148608 99.67255248033484 0.0
31.973126369700985 99.6714904364665 0.0
29.974768543247464 99.67049119732363 0.0
27.976417973156778 99.66955505641242 0.0
25.9780741714838 99.6686822880503 0.0
[...]
POINT_DATA 5151
SCALARS DISPL_X float 1
LOOKUP_TABLE default
0.0
0.0
-0.3091424850397648
0.0
0.003637881178607528
0.007274168138119739
0.010907266836171495
0.01453558358520162
0.018157525233219216
0.0217714993486023
0.025375914410271164
0.028969180004580507
0.032549707030265204
0.03611590791277823
0.03966619682933678
0.043198989945999584
0.046712705668075644
0.05020576490515021
0.05367659135198702
0.05712361178653014
0.0605452563862188
0.06393995906374648
0.06730615782335957
0.07064229513871778
0.07394681835325383
0.07721818010387821
0.08045483876875165
0.08365525893972184
0.08681791191986007
0.08994127624635262
0.0930238382388036
0.09606409257276033
0.09906054287801436
0.10201170236092275
0.104916094449666
0.10777225346096661
0.11057872528636453
0.11333406809568938
0.11603685305485736
0.11868566505447825
0.1212791034451832
0.12381578277484724
0.12629433352210873
0.12871340281973084
0.13107165516042335
0.13336777307670336
0.13560045778526464
0.13776842978508377
0.13987042939713798
0.14190521723213753
0.1438715745710274
0.14576830364122176
0.14759422776953549
0.14934819139055946
0.15102905988675047
0.15263571923372163
0.15416707542107716
0.1556220536155545
0.15699959702912797
0.158298665449996
0.15951823338884322
0.16065728778628374
0.16171482521972358
0.16268984853871632
0.16358136284687802
0.16438837073508844
0.16510986665443383
0.16574483029736736
0.16629221883082518
0.16675095779431404
0.16711993043747642
0.16739796522312433
0.16758382116030857
0.1676761705536161
0.16767357865434782
0.16757447956935828
0.1673771476144258
0.16707966307766528
0.1666798710661349
0.16617533171925308
0.1655632595487694
0.16484044895324929
0.1640031819770357
0.16304711302329405
0.161967123312783
0.1607571351353265
0.1594098719479889
0.15791654445790898
0.15626643388166075
0.15444632973499267
0.15243975753261566
0.1502258959111087
0.14777802181359945
0.14506121677259243
0.14202886554330574
0.13861712601074955
0.1347355896616993
0.13025137787251398
0.12495425179657577
0.11850006222395787
0.11011575442764178
0.09825357267193693
0.07339022565273573
0.0580102593589348
0.06199796191401816
0.0654848222781668
0.06436771587486564
0.06146284222404595
0.05731742396235179
0.05236202690953485
0.04682181848536662
0.04084468027232511
0.03452902131457529
0.02794393722182632
0.021139269289541854
0.014151795744772641
0.007009068384792662
-0.000268069333268111
-0.007663775162941679
-0.015166012877291083
-0.022765692855409473
-0.0304560391086037
-0.03823211291323539
-0.04609044707864762
-0.05402875980549432
-0.062045726669478475
-0.07014079556236683
-0.07831403364630693
-0.08656599826127231
-0.09489762572247303
-0.10331013334198724
-0.1118049309919904
-0.12038353921711349
-0.1290475113811322
-0.13779835765194687
-0.1466374688243397
-0.15556603807561215
-0.1645849787607962
-0.1736948362892017
-0.18289569199211309
-0.19218705669715563
-0.2015677514829192
-0.21103577282864516
-0.22058813917230494
-0.23022071591982254
-0.2399280166186145
-0.24970298030718716
-0.2595367315166634
-0.2694183469139762
-0.27933470262685167
-0.2892706345069171
-0.2992101878869398
-0.3093641330158622
-0.3095950279202381
-0.3098430465971511
-0.3101096582813043
-0.3103917717845973
-0.31068359600036655
-0.31097777775827806
-0.3112660977070051
-0.31153991517136514
-0.31179046501299723
-0.31200906238920445
-0.31218724725971914
-0.31231688766215465
-0.31239025360887773
-0.3124000692791809
-0.31233954866013647
-0.31220241822599804
-0.31198292925295706
-0.31167586172161016
-0.3112765213320394
-0.31078073086562946
-0.3101848169236955
-0.30948559292405714
-0.3086803391227372
-0.30776678033616633
-0.3067430619615473
-0.30560772482437526
-0.30435967931951663
-0.3029981792540497
-0.3015227957454324
-0.29993339147713155
-0.29823009556560076
-0.2964132792475302
-0.29448353255476056
-0.29244164210630663
-0.2902885701126662
-0.2880254346570375
-0.28565349129123874
-0.2831741159607587
-0.2805887892536265
-0.2778990819511601
-0.27510664184505196
-0.2722131817744239
-0.2692204688281211
-0.2661303146513582
-0.26294456679160494
-0.2596651010160329
-0.2562938145317078
-0.2528326200397486
-0.24928344055570043
-0.2456482049301496
-0.2419288440060438
-0.23812728735202893
-0.23424546051432676
-0.2302852827331091
-0.22624866507286656
-0.2221375089198741
-0.2179537048034445
-0.21369913150118441
-0.20937565539188058
-0.20498513002292634
-0.2005293958623323
-0.19601028020830275
-0.19142959723212444
-0.18678914813274752
-0.1820907213837749
-0.17733609305572318
-0.17252702719865748
-0.16766527627195305
-0.16275258160970058
-0.15779067391180668
-0.15278127375220915
-0.1477260920968712
-0.1426268308253359
-0.13748518325061404
-0.1323028346330648
-0.12708146268471054
-0.12182273806112637
-0.11652832483865287
-0.11119988097520975
-0.10583905875346725
-0.10044750520552699
-0.09502686251862658
-0.08957876842167839
-0.08410485655271556
-0.07860675680754556
-0.07308609567009963
-0.06754449652511368
-0.061983579953933096
-0.0564049640143303
-0.0508102645053186
-0.045201095218026996
-0.03957906817375946
-0.03394579385041299
-0.028302881398474058
-0.022651938847837238
-0.01699457330671781
-0.011332391153957289
-0.005666998226018837
0.0
0.0
0.0
0.0
0.0
0.0
0.0
0.0
0.0
0.0
0.0
0.0
0.0
0.0
0.0
0.0
0.0
0.0
0.0
0.0
0.0
0.0
0.0
0.0
0.0
0.0
0.0
0.0
0.0
0.0
0.0
0.0
0.0
0.0
0.0
0.0
0.0
0.0
0.0
0.0
0.0
0.0
0.0
0.0
0.0
0.0
0.0
0.0
0.0
0.003422791779687266
0.0032112653198767627
0.0030031506839305793
0.002798297340089997
0.002596555301986507
0.0023977750863009243
0.002201807666970904
0.002008504426713313
0.0018177171066001327
0.001629297754396486
0.0014430986723288305
0.0012589723649208448
0.0010767714874900703
0.0008963487958613579
0.0007175570978097774
0.0005402492067021292
0.0003642778977693839
0.00018949586739467535
1.575569576463383e-05
-0.00015709018681413358
-0.0003291895296632043
-0.0005006902873220629
-0.0006717406407877092
-0.00084248901425613
-0.0010130840872462168
-0.0011836748020242391
-0.0013544103662803625
-0.0015254402510438657
-0.0016969141838546547
-0.0018689821372415809
-0.0020417943125857823
-0.0022155011194891962
-0.002390253150791229
-0.0025662011534202727
-0.002743495995284741
-0.002922288628462376
-0.003102730048968842
-0.0032849712534332295
-0.0034691631930369024
-0.0036554567251220484
-0.0038440025629116036
-0.004034951223825935
-0.0042284529769268785
-0.00442465779005907
-0.004623715277307936
-0.004825774647433429
-0.005030984653982554
-0.005239493547827446
-0.005451449032910527
0.006844054392375863
0.00642106613186417
0.006004901148127729
0.005595258403388707
0.005191837953760128
0.004794340863986219
0.004402469115296698
0.004015925507914091
0.003634413559693731
0.0032576374023128582
0.0028853016763512917
0.0025171114265361665
0.0021527719983405755
0.0017919889370454631
0.0014344678902928113
0.001079914515068818
0.0007280343899777098
0.0003785329335790215
3.111532948097604e-05
-0.0003145135412101114
-0.000658649159535128
-0.0010015874199918798
-0.0013436246731142207
-0.0016850577590293721
-0.0020261840317613174
-0.0023673013741056766
-0.0027087082029915925
-0.0030507034652981126
-0.0033935866241592916
-0.003737657635862116
-0.004083216917496037
-0.004430565305585745
-0.004780004006003832
-0.005131834535523224
-0.005486358655428862
-0.005843878297698879
-0.006204695484321388
-0.0065691122403911855
-0.006937430501709468
-0.007309952017690914
-0.00768697825046201
-0.008068810271122022
-0.008455748654222462
-0.008848093371612424
-0.009246143686879994
-0.009650198051711413
-0.010060554005581639
-0.010477508080258028
-0.010901355710694564
0.010262258839638064
0.00962793808574203
0.00900385131726719
0.008389547042272644
0.007784575417419696
0.007188488118632625
0.00660083820147827
0.006021179953581113
0.005449068741300996
0.004884060852800197
0.004325713339523562
0.00377358385799817
0.0032272305137424897
0.00268621170894972
0.0021500859954860134
0.001618411934613833
0.0010907479647287762
0.0005666522782681084
4.568270882623077e-05
-0.00047260337062121193
-0.0009886491375698432
-0.0015028983972615062
-0.002015795646809311
-0.0025277861257234895
-0.003039315852491382
-0.003550831646966373
-0.004062781138426818
-0.004575612759263859
-0.005089775724348127
-0.005605719996229245
-0.00612389623641328
-0.006644755743060003
-0.007168750375539781
-0.007696332466396176
-0.008227954721334436
-0.008764070108003922
-0.009305131734415654
-0.009851592717961377
-0.01040390604611589
-0.010962524430023483
-0.011527900152293918
-0.012100484910460708
-0.012680729657686119
-0.013269084442428324
-0.013865998248919443
-0.014471918840441144
-0.015087292607508957
-0.01571256442320634
-0.016348177508030012
0.013675876461366924
0.012830417147642253
0.011998601405697494
0.011179827368156191
0.010373495380245082
0.009579007824625353
0.008795768932609355
0.008023184584864718
0.007260662104584448
0.006507610045973008
0.0057634379807510105
0.005027556285230937
0.004299375930349189
0.0035783082768785146
0.002863764877875783
0.002155157290246135
0.0014518968971349963
0.0007533947426931651
5.906138058985452e-05
-0.0006316932625283141
-0.0013194600075512562
-0.0020048305265243918
-0.002688397428616463
-0.0033707543278371967
-0.004052495892050839
-0.004734217872963028
-0.005416517116897994
-0.006099991556309348
-0.006785240182100434
-0.007472862996952656
-0.008163460949992355
-0.00885763585324882
-0.009555990280487323
-0.010259127449143115
-0.010967651086176231
-0.0116821652788687
-0.012403274311678997
-0.013131582490435367
-0.013867693955306322
-0.014612212484142007
-0.015365741287948483
-0.016128882800427156
-0.01690223846368726
-0.017686408512417363
-0.018481991758981353
-0.019289585382087235
-0.020109784721847518
-0.02094318308422953
-0.021790371558051986
0.017083379107880284
0.016027039760757165
0.014987752064407915
0.013964763882761164
0.01295732586867919
0.011964691240618086
0.010986115542420478
0.01002085639013934
0.00906817320963653
0.008127326968534802
0.007197579905915438
0.006278195262958133
0.0053684370175134475
0.00446756962539117
0.003574857770931426
0.0026895661292100736
0.0018109591420166584
0.0009383008095262491
7.085449938030848e-05
-0.0007921172253331865
-0.001651352757857597
-0.0025075915782262984
-0.0033615743614676444
-0.004214043062810329
-0.005065740979332354
-0.005917412787658085
-0.006769804557475367
-0.007623663740809
-0.008479739137146378
-0.00933878083466597
-0.01020154012797735
-0.011068769412938408
-0.011941222059276061
-0.012819652261909426
-0.013704814871996724
-0.01459746520897064
-0.015498358854948074
-0.016408251433109193
-0.01732789837182788
-0.018258054656540706
-0.019199474571546596
-0.02015291143414177
-0.02111911732372107
-0.0220988428086984
-0.023092836674328716
-0.024101845654737764
-0.025126614172697972
-0.026167884090902524
-0.027226394478704077
0.020483239315548962
0.019216343009073805
0.01796990453054472
0.016743021611475187
0.015534795363965797
0.014344330006247828
0.013170732568207884
0.012013112581606922
0.010870581759517706
0.009742253669293332
0.008627243403162985
0.0075246672502942025
0.006433642373928135
0.005353286496926384
0.004282717598811665
0.0032210536271244164
0.0021674122256503973
0.0011209104818198316
8.066469533002778e-05
-0.0009542098302403291
-0.0019845989712193287
-0.003011389941749306
-0.0040354714247144135
-0.005057733674799969
-0.006079068593021221
-0.0071003697722651
-0.008122532513574062
-0.009146453813102237
-0.010173032319862581
-0.011203168264566781
-0.012237763360048823
-0.013277720673943299
-0.01432394447448583
-0.01537734005050859
-0.016438813506839796
-0.017509271536617077
-0.018589621172161862
-0.019680769516313458
-0.02078362345634814
-0.02189908936284989
-0.02302807277615032
-0.0241714780832124
-0.025330208188102055
-0.02650516417946773
-0.02769724499872007
-0.02890734711288569
-0.03013636419638711
-0.03138518682626813
-0.032654702195646146
0.023873930487122816
0.022396864785139216
0.020943660780312574
0.01951326623948226
0.018104632919983293
0.016716716240508342
0.01534847492892873
0.013998870652621346
0.012666867636618482
0.011351432274649683
0.010051532737866235
0.008766138585758736
0.00749422038347849
0.006234749329466521
0.004986696896984607
0.0037490344928390856
0.0025207331362668258
0.001300763160658782
8.809394049769396e-05
-0.0011183063544407353
-0.0023194709757657674
-0.003516434782559125
-0.004710234395589216
-0.005901908318650123
-0.007092497026262258
-0.008283043017210188
-0.00947459083361894
-0.010668187045495414
-0.011864880200874678
-0.013065720741928149
-0.01427176088760259
-0.015484054483570047
-0.016703656820489483
-0.017931624421817963
-0.01916901480257164
-0.020416886200776585
-0.021676297283512565
-0.022948306829741236
-0.02423397339238084
-0.02553435494236275
-0.026850508497704016
-0.028183489740933047
-0.029534352628519736
-0.03090414899628919
-0.03229392816512287
-0.03370473655158589
-0.03513761728845019
-0.03659360986040887
-0.03807374976058785
0.027253927077910897
0.025567143962843396
0.023907623686086014
0.02227416425133345
0.020665568283793685
0.019080642642167855
0.017518198004727703
0.015977048435888395
0.014456010939407465
0.012953905004041144
0.011469552147168783
0.010001775461559675
0.00854939917010954
0.007111248193016791
0.005686147731504159
0.0042729228718361495
0.0028703982130231214
0.0014773975212439394
9.274341368793114e-05
-0.0012847429258629217
-0.0026562419976177034
-0.004022936200865065
-0.005386010012130637
-0.006746650125276123
-0.008106045552693255
-0.00946538768700863
-0.010825870322976803
-0.012188689639485016
-0.013555044141840526
-0.014926134564746903
-0.016303163736619723
-0.017687336406126356
-0.019079859032079868
-0.020481939538085525
-0.021894787033519932
-0.023319611502808677
-0.02475762346514515
-0.026210033607133094
-0.027678052391131094
-0.02916288964239531
-0.030665754118463343
-0.03218785306456262
-0.03373039175919755
-0.03529457305444538
-0.036881596915872096
-0.03849265996737079
-0.040128955046615435
-0.041791670777202604
-0.043481991163931796
0.030621704788980263
0.02872572057620191
0.026860397178541523
0.02502438307461071
0.02321633201941509
0.021434902592604263
0.019678757718144452
0.01794656416268882
0.016236992019610562
0.014548714185307045
0.01288040583401696
0.011230743896999344
0.009598406551518866
0.007982072724676856
0.006380421616705118
0.004792132247928006
0.003215883033192209
0.0016503513871567752
9.421336344795262e-05
-0.001453856669735637
-0.0029951863152434064
-0.004531105391986558
-0.006062946137760384
-0.007592043368635622
-0.00911973459399788
-0.01064736008660031
-0.012176262907289176
-0.013707788884329037
-0.015243286547531435
-0.016784107017646828
-0.018331603851746665
-0.019887132845584535
-0.021452051794191983
-0.023027720212255093
-0.024615499016032428
-0.026216750168980875
-0.027832836293474758
-0.02946512025136646
-0.031114964696475407
-0.0327837316024489
-0.0344727817698247
-0.036183474316524154
-0.037917166156413204
-0.03967521147100276
-0.04145896117980823
-0.0432697624153259
-0.04510895800904309
-0.04697788599534629
-0.0488778791406286
0.03397574076851163
0.03187113600509812
0.02980058641460076
0.027762591228310037
0.025755655635295176
0.02377829026140368
0.021829010617230332
0.01990633652323963
0.018008791519855984
0.01613490226993114
0.014283197960570537
0.012452209710848455
0.010640469991485513
0.008846512062090046
0.007068869431090319
0.005306075343019548
0.003556662297345502
0.0018191616025896068
9.210296903603394e-05
-0.0016259858571336674
-0.0033365794157452677
-0.0050411548085772424
-0.006741191927630369
-0.00843817363438699
-0.010133585889067511
-0.011828917829217842
-0.013525661797270948
-0.01522531331702402
-0.016929371019268287
-0.018639336517088198
-0.020356714231635174
-0.022083011169459897
-0.023819736652779706
-0.025568402004372007
-0.027330520189013552
-0.029107605413832262
-0.03090117269017212
-0.03271273735997996
-0.03454381459008403
-0.03639591883814443
-0.038270563294474716
-0.040169259304384454
-0.04209351577615833
-0.04404483858027393
-0.04602472994596674
-0.04803468786176055
-0.05007620548710333
-0.05215077058276573
-0.054259864968173824
0.03731451382243786
0.03500193316892521
0.03272679795194591
0.03048745847654661
0.028282271715939555
0.026109600715037692
0.0239678139607698
0.021855284728291985
0.019770390411790826
0.01771151184810124
0.01567703264087541
0.013665338492527134
0.011674816550648644
0.009703854775071082
0.007750841331200536
0.005814164014732974
0.0038922097123350744
0.00198336390236384
8.601019921390926e-05
-0.0018014700556401018
-0.00368069815317527
-0.005553298324778394
-0.007420897996796595
-0.009285127990267511
-0.011147622664780643
-0.013010020005782011
-0.014873961654957904
-0.01674109288366598
-0.018613062509684523
-0.020491522757858885
-0.022378129065525477
-0.024274539833889976
-0.02618241612684812
-0.02810342131907671
-0.030039220695460684
-0.03199148100440622
-0.03396186996784197
-0.03595205575115223
-0.03796370639668217
-0.039998489224903386
-0.04205807020779534
-0.04414411331948764
-0.04625827986974258
-0.04840222782639262
-0.05057761113341993
-0.05278607903194958
-0.055029275392016325
-0.05730883806356084
-0.059626398255706675
0.04063650463548127
0.03811665672904558
0.03563763993084848
0.03319765598815317
0.030794914058112022
0.028427630028905738
0.026094025805775592
0.02379232857203579
0.021520770034660224
0.01927758566350544
0.017061013932673
0.01486929557193448
0.012700672835551586
0.010553388795222086
0.0084256866632841
0.006315809151721072
0.004221997871925324
0.002142492779615915
7.553166876503907e-05
-0.0019806502821857943
-0.004027820908908464
-0.0060677514022988484
-0.008102216590181038
-0.010132995158127352
-0.012161869808316426
-0.014190627355722674
-0.01622105876128819
-0.01825495910207272
-0.020294127478699908
-0.022340366860738002
-0.024395483870971874
-0.026461288509831597
-0.028539593821569613
-0.030632215504137937
-0.032740971464963145
-0.03486768132533331
-0.03701416587638369
-0.03918224649013047
-0.04137374448944667
-0.04359048048134695
-0.04583427365846364
-0.04810694107414416
-0.05041029689717526
-0.0527461516527481
-0.05511631145691787
-0.0575225772524624
-0.059966744054722874
-0.06245060021668141
-0.06497592672321362
0.043940196003676046
0.04121385330095781
0.03853172226400997
0.03589185650270138
0.03329231781199017
0.03073117540298879
0.02820650509739043
0.02571638849634405
0.02325891213430318
0.020832166627767754
0.01843424582820177
0.016063245987758032
0.013717264945778799
0.011394401343359643
0.00909275387260434
0.006810420566533794
0.004545498134967893
0.00229608135107881
6.026249271181925e-05
-0.0021638691580504006
-0.004378227754014797
-0.006584731258320126
-0.008785301754185872
-0.010981865687451756
-0.013176354040806908
-0.015370702439012422
-0.017566851184794438
-0.01976674522544173
-0.02197233405047791
-0.024185571521114283
-0.026408415632510368
-0.02864282821019475
-0.030890774542333143
-0.03315422294990008
-0.035435144297072264
-0.0377355114446981
-0.04005729864999068
-0.042402480916077394
-0.044773033295513985
-0.04717093015239099
-0.04959814438820824
-0.05205664663729558
-0.0545484044381931
-0.05707538138807692
-0.059639536288025506
-0.0622428222876544
-0.06488718603841162
-0.06757456686558916
-0.07030689596988263
0.047224073079443096
0.04429207167702716
0.041407656835081255
0.03856873450343892
0.03577321962760967
0.03301903528131914
0.030304111761285668
0.027626385656356965
0.02498379890249367
0.02237429783439307
0.019795832243834497
0.017246354454091235
0.0147238184190095
0.012226178854600945
0.009751390410255089
0.007297406885941871
0.004862180501067723
0.0024436612199581122
3.979613828466588e-05
-0.002351471065921552
-0.004732200613476924
-0.007104457035022467
-0.009470309509713039
-0.011831832130085285
-0.014191104092012135
-0.01655020980907166
-0.018911238951053785
-0.021276286406685906
-0.02364745217101613
-0.026026841158222826
-0.02841656294095483
-0.030818731417632406
-0.03323546440947974
-0.035668883189438075
-0.03812111194537461
-0.04059427718056313
-0.04309050705470496
-0.045611930669287246
-0.04816067730156598
-0.05073887559201694
-0.05334865269069794
-0.055992133368610905
-0.05867143910084914
-0.061388687129056665
-0.06414598951151043
-0.06694545216995869
-0.06978917394319356