# vtk DataFile Version 2.0
mesh vtk view
ASCII
DATASET UNSTRUCTURED_GRID
POINTS 5151 double
0.0 -0.10327779148459262 0.0
200.0 0.0 0.0
199.9716093636188 99.968985575874 0.0
0.0 99.89689593502587 0.0
2.000334091120736 -0.10326783039511603 0.0
4.000668035833729 -0.10323795012312616 0.0
6.0010016877471175 -0.10318815965763861 0.0
8.001334900501439 -0.10311847397932264 0.0
10.00166752778704 -0.1030289140589401 0.0
12.001999423360695 -0.10291950685510456 0.0
14.00233044106295 -0.1027902853113069 0.0
16.00266043483518 -0.10264128835213647 0.0
18.00298925873887 -0.1024725608786088 0.0
20.003316766976365 -0.10228415376249589 0.0
22.00364281391085 -0.1020761238395359 0.0
24.003967254087954 -0.10184853390137968 0.0
26.00428994225792 -0.1016014526861128 0.0
28.004610733402217 -0.10133495486717096 0.0
30.0049294827594 -0.10104912104044522 0.0
32.00524604585016 -0.10074403770935075 0.0
34.00556027850709 -0.10041979726760633 0.0
36.00587203690588 -0.1000764979794508 0.0
38.00618117759791 -0.0997142439569889 0.0
40.006487557545064 -0.09933314513433879 0.0
42.006791034156414 -0.09893331723821498 0.0
44.007091465327214 -0.09851488175455378 0.0
46.007388709479926 -0.09807796589075134 0.0
48.0076826256077 -0.09762270253304892 0.0
50.00797307331999 -0.09714923019856327 0.0
52.008259912890615 -0.09665769298141455 0.0
54.00854300530812 -0.09614824049236893 0.0
56.00882221232839 -0.09562102779135828 0.0
58.00909739652972 -0.09507621531219729 0.0
60.009368421369814 -0.09451396877876579 0.0
62.009635151245135 -0.09393445911186526 0.0
64.00989745155476 -0.09333786232590378 0.0
66.01015518875985 -0.09272435941450298 0.0
68.01040823044312 -0.09209413622405054 0.0
70.01065644538508 -0.0914473833141447 0.0
72.01089970362665 -0.09078429580381771 0.0
74.01113787653681 -0.09010507320232461 0.0
76.01137083688013 -0.08940991922320438 0.0
78.01159845888425 -0.08869904158021641 0.0
80.01182061830627 -0.0879726517636535 0.0
82.01203719249754 -0.0872309647954114 0.0
84.01224806046618 -0.08647419896106269 0.0
86.01245310293613 -0.08570257551704338 0.0
88.01265220240222 -0.08491631837088852 0.0
90.01284524317965 -0.08411565373227418 0.0
92.01303211144693 -0.08330080973241186 0.0
94.01321269528088 -0.08247201600909701 0.0
96.013386884682 -0.08162950325444032 0.0
98.01355457158847 -0.08077350272198773 0.0
100.01371564987693 -0.07990424568955702 0.0
102.01387001534779 -0.07902196287368797 0.0
104.01401756569267 -0.0781268837910775 0.0
106.01415820044127 -0.07721923606177215 0.0
108.01429182088451 -0.07629924464815613 0.0
110.01441832997021 -0.07536713102292034 0.0
112.01453763216882 -0.07442311225816195 0.0
114.01464963330277 -0.07346740002653233 0.0
116.01475424033596 -0.07250019950386333 0.0
118.01485136111746 -0.07152170816090943 0.0
120.01494090407203 -0.07053211442967093 0.0
122.01502277783173 -0.06953159622712678 0.0
124.01509689079785 -0.06852031931599191 0.0
126.01516315062388 -0.06749843547818439 0.0
128.0152214636133 -0.06646608047186321 0.0
130.01527173399933 -0.06542337173696688 0.0
132.0153138630987 -0.06437040580682289 0.0
134.01534774835244 -0.06330725537424801 0.0
136.0153732821702 -0.0622339659492 0.0
138.0153903505836 -0.0611505520306701 0.0
140.0153988316612 -0.06005699269743598 0.0
142.01539859364064 -0.058953226499298614 0.0
144.01538949271517 -0.05783914550100145 0.0
146.01537137040367 -0.05671458829308783 0.0
148.0153440504062 -0.05557933173463407 0.0
150.0153073348243 -0.05443308112811682 0.0
152.01526099958906 -0.0532754584410332 0.0
154.01520478889046 -0.05210598807432262 0.0
156.01513840833655 -0.050924079522619826 0.0
158.01506151648226 -0.04972900605903628 0.0
160.01497371424242 -0.04851987828242979 0.0
162.0148745315248 -0.04729561095000423 0.0
164.01476341017258 -0.0460548809240302 0.0
166.01463968193156 -0.04479607319640281 0.0
168.01450253962204 -0.04351721067049081 0.0
170.01435099886575 -0.04221586143217218 0.0
172.01418384645513 -0.040889014216869156 0.0
174.01399956942703 -0.03953290795712169 0.0
176.01379625561555 -0.03814279335433636 0.0
178.0135714508625 -0.03671259098549561 0.0
180.0133219483696 -0.03523438626200971 0.0
182.01304346714525 -0.03369765897678945 0.0
184.0127301441379 -0.03208804922957777 0.0
186.01237367652487 -0.030385330322743646 0.0
188.0119618611675 -0.028559568094198868 0.0
190.0114753904164 -0.02656495697199009 0.0
192.01088265873187 -0.024319117207621158 0.0
194.01011267129206 -0.021696252038626723 0.0
196.00902328726428 -0.01823278895380756 0.0
198.00673991867149 -0.013917645517740843 0.0
200.00532747279826 1.9902082404096617 0.0
200.00569369037987 3.9859107637145694 0.0
200.00601391225004 5.983492856146326 0.0
200.00591132084566 7.981766030105282 0.0
200.00564454673486 9.980426273293531 0.0
200.00526384505775 11.979327745334334 0.0
200.00480875757333 13.978397462373314 0.0
200.00429996292212 15.97759134393592 0.0
200.00375104206583 17.97688109548587 0.0
200.0031710325697 19.97624738390058 0.0
200.00256627994895 21.975676448747297 0.0
200.00194136146536 23.975158157655674 0.0
200.00129965471126 25.97468484323316 0.0
200.0006436899537 27.974250567793906 0.0
199.99997538138777 29.973850640684926 0.0
199.9992961839136 31.973481290577425 0.0
199.99860720289902 33.97313943665714 0.0
199.9979092731051 35.97282252491602 0.0
199.99720301681657 37.97252840854347 0.0
199.9964888875896 39.972255258840974 0.0
199.9957672038397 41.97200149775948 0.0
199.9950381751199 43.97176574602121 0.0
199.99430192306096 45.97154678266258 0.0
199.99355849836672 47.971343513071275 0.0
199.99280789486923 49.97115494342474 0.0
199.99205006138416 51.970980160011045 0.0
199.99128491192346 53.97081831231542 0.0
199.99051233469308 55.97066859904162 0.0
199.98973220021503 57.97053025644457 0.0
199.9889443688474 59.97040254850324 0.0
199.98814869793438 61.97028475857783 0.0
199.98734504878706 63.97017618228593 0.0
199.9865332936794 65.97007612139966 0.0
199.98571332303388 67.96998387859357 0.0
199.98488505297095 69.96989875304706 0.0
199.98404843340202 71.96982003676722 0.0
199.98320345685786 73.96974701170711 0.0
199.9823501682625 75.96967894775587 0.0
199.9814886758842 77.96961510177309 0.0
199.9806191637198 79.96955471795705 0.0
199.97974190558622 81.96949703000824 0.0
199.97885728119104 83.96944126581432 0.0
199.97796579439216 85.96938665580466 0.0
199.97706809364527 87.96933244683007 0.0
199.97616499404438 89.96927792466673 0.0
199.9752574987528 91.96922245053975 0.0
199.97434681302406 93.96916552151818 0.0
199.97343432948406 95.96910687288349 0.0
199.97252151335732 97.96904664901827 0.0
197.97158900820662 99.96807385073463 0.0
195.97156780358674 99.96716279099299 0.0
193.9715450263755 99.96625139318525 0.0
191.9715205416432 99.96533818566802 0.0
189.97149463327457 99.96442177330132 0.0
187.97146783310566 99.96350095931791 0.0
185.97144081642782 99.96257476659605 0.0
183.97141433807937 99.96164242905832 0.0
181.97138919159175 99.96070337439568 0.0
179.97136618192664 99.95975720497051 0.0
177.97134610667158 99.95880367922972 0.0
175.97132974276917 99.95784269437956 0.0
173.97131783703216 99.956874270488 0.0
171.97131109935737 99.95589853596869 0.0
169.97131019793244 99.95491571433344 0.0
167.9713157559627 99.95392611209101 0.0
165.9713283495882 99.95293010768077 0.0
163.97134850675297 99.95192814134741 0.0
161.9713767068466 99.95092070587896 0.0
159.9714133809782 99.94990833814447 0.0
157.97145891277003 99.94889161137883 0.0
155.9715136395748 99.94787112816938 0.0
153.97157785403797 99.94684751410495 0.0
151.97165180593186 99.94582141205089 0.0
149.971735704202 99.94479347701579 0.0
147.97182971916897 99.94376437157668 0.0
145.97193398483859 99.94273476182951 0.0
143.9720486012768 99.94170531383203 0.0
141.9721736370113 99.940676690506 0.0
139.97230913142937 99.93964954896552 0.0
137.97245509714168 99.93862453823859 0.0
135.9726115222906 99.93760229734897 0.0
133.97277837278298 99.93658345372666 0.0
131.97295559443225 99.93556862191501 0.0
129.97314311499784 99.93455840254511 0.0
127.97334084611309 99.93355338154777 0.0
125.9735486850886 99.93255412957605 0.0
123.9737665166222 99.9315612016125 0.0
121.97399421435664 99.93057513673668 0.0
119.97423164231954 99.9295964580309 0.0
117.97447865625547 99.92862567260353 0.0
115.97473510483675 99.92766327171113 0.0
113.9750008307616 99.9267097309624 0.0
111.97527567174646 99.92576551058885 0.0
109.97555946141576 99.92483105576844 0.0
107.97585203009676 99.92390679699028 0.0
105.97615320552512 99.92299315044984 0.0
103.97646281346756 99.92209051846541 0.0
101.97678067826784 99.92119928990795 0.0
99.9771066233225 99.92031984063756 0.0
97.97744047149222 99.91945253394091 0.0
95.97778204545465 99.91859772096464 0.0
93.9781311680045 99.91775574114106 0.0
91.97848766230592 99.91692692260288 0.0
89.97885135210218 99.91611158258424 0.0
87.9792220618873 99.91531002780646 0.0
85.97959961704423 99.91452255484677 0.0
83.97998384395288 99.91374945048916 0.0
81.98037457007248 99.9129909920566 0.0
79.98077162400087 99.91224744772444 0.0
77.98117483551438 99.91151907681476 0.0
75.98158403559036 99.910806130072 0.0
73.98199905641573 99.9101088499201 0.0
71.98241973137783 99.90942747070152 0.0
69.98284589505684 99.90876221889899 0.0
67.98327738321346 99.90811331334044 0.0
65.98371403273958 99.90748096538795 0.0
63.98415568163058 99.9068653791114 0.0
61.98460216894638 99.90626675144782 0.0
59.98505333476848 99.90568527234703 0.0
57.9855090201551 99.90512112490462 0.0
55.98596906709433 99.90457448548285 0.0
53.98643331845659 99.9040455238205 0.0
51.98690161794692 99.90353440313233 0.0
49.987373810056916 99.9030412801989 0.0
47.98784974001776 99.9025663054476 0.0
45.9883292537539 99.90210962302538 0.0
43.98881219783778 99.901671370864 0.0
41.989298419446015 99.90125168073847 0.0
39.98978776631722 99.90085067831912 0.0
37.99028008671113 99.90046848321789 0.0
35.99077522936966 99.9001052090295 0.0
33.99127304347976 99.89976096336781 0.0
31.991773378637742 99.8994358478979 0.0
29.992276084815582 99.89912995836438 0.0
27.99278101232896 99.89884338461604 0.0
25.993288011806964 99.89857621062764 0.0
[...]
POINT_DATA 5151
SCALARS DISPL_X float 1
LOOKUP_TABLE default
0.0
0.0
-0.6624481822280675
0.0
0.007795459668444703
0.015587503153113726
0.02337271464893892
0.031147679111146326
0.03890898264261261
0.04665321288986207
0.05437695945058106
0.06207681429552966
0.06974937220771116
0.07739123124166764
0.08499899320572168
0.09256926416999911
0.10009865500301923
0.1075837819396076
0.11502126718282932
0.12240773954256458
0.12973983511332599
0.13701419799374248
0.14422748105005623
0.15137634672582384
0.15845746789982962
0.16546752879402474
0.17240322593303925
0.17926126915654678
0.18603838268541445
0.19273130624218418
0.1993367962260077
0.20585162694162928
0.21227259188145933
0.21859650505912015
0.22482020239214143
0.23094054313064274
0.236954411327924
0.24285871734790582
0.24865039940326578
0.2543264251167391
0.25988379309682114
0.2653195345175298
0.270630714690233
0.2758144346137089
0.2808678324866215
0.2857880851643644
0.29057240953985275
0.2952180638251795
0.29972234870815284
0.30408260835458045
0.30829623122363015
0.31236065065976093
0.31627334522043316
0.320031838694056
0.3236336997573224
0.32707654121511776
0.33035801875945103
0.33347582917618823
0.3364277079195599
0.3392114259642771
0.3418247858332355
0.34426561668489375
0.3465317683279791
0.348621104011535
0.35053149181473864
0.3522607944323324
0.35380685711664395
0.3551674934943586
0.3563404689231968
0.35732348098781574
0.3581141366517352
0.3587099254781235
0.35910818820066126
0.3593060797577488
0.3593005256878882
0.35908817050576775
0.3586653163166267
0.3580278494521399
0.35717115228457486
0.3560899965412566
0.35477841331879156
0.35322953347124847
0.3514353899507908
0.34938667076420155
0.34707240709882076
0.34447957528998535
0.3415925827456905
0.3383925952669478
0.3348566440321302
0.33095642086069854
0.32665662328417644
0.3219126340952329
0.3166671896005703
0.310845464512698
0.3043475690213694
0.2970366985944633
0.28871912070364136
0.2791100954411014
0.26775911099266236
0.253928704765624
0.23596233091637525
0.21054337001129342
0.1572647692558623
0.12430769862628885
0.1328527755300389
0.14032461916750028
0.13793081973185495
0.13170609048009846
0.12282305134789669
0.11220434337757468
0.10033246818292849
0.0875243148692681
0.0739907599598042
0.05987986547534212
0.0452984341918754
0.030325276595941374
0.015019432253127133
-0.0005744342855745235
-0.016422375349160738
-0.03249859902276661
-0.048783627547306016
-0.06526294094700794
-0.08192595624264726
-0.09876524373995918
-0.11577591386891639
-0.13295512857745387
-0.15030170477650034
-0.16781578638494343
-0.18549856770272638
-0.20335205511958504
-0.22137885716140124
-0.23958199498283658
-0.2579647268938146
-0.2765303815309976
-0.2952821949684576
-0.3142231474807279
-0.3333557958763117
-0.35268209734456324
-0.37220322061971794
-0.39191933998309947
-0.4118294072081906
-0.4319308960348268
-0.4522195132042396
-0.47268886965493917
-0.4933301055424769
-0.5141314641827454
-0.5350778149439724
-0.5561501389642787
-0.5773250291013776
-0.598574362771825
-0.6198656453719652
-0.6411646883291567
-0.6629231421768476
-0.6634179169719387
-0.6639493855653238
-0.6645206963170807
-0.6651252252527085
-0.6657505628579283
-0.6663809523391673
-0.6669987808007252
-0.6675855325100681
-0.6681224250278512
-0.6685908479768667
-0.6689726726993981
-0.6692504735617599
-0.669407686304738
-0.669428719883959
-0.6692990328431496
-0.6690051819128529
-0.6685348483991937
-0.6678768465463074
-0.6670211171400845
-0.6659587089977774
-0.664681750550776
-0.6631834134086938
-0.6614578695487225
-0.6595002435774993
-0.6573065613461728
-0.6548736960522327
-0.6521993128275356
-0.6492818126872494
-0.646120276597355
-0.642714410308139
-0.6390644904977159
-0.635171312673279
-0.6310361411887726
-0.6266606616563714
-0.6220469359557133
-0.6171973599793661
-0.6121146241955115
-0.6068016770587686
-0.6012616912577711
-0.5954980327524859
-0.5895142325251114
-0.583313960945194
-0.576901004631688
-0.5702792456814819
-0.5634526431248676
-0.5564252164629278
-0.5492010311393738
-0.5417841857994613
-0.5341788011907866
-0.5263890105646063
-0.5184189514415225
-0.5102727586114906
-0.5019545582449859
-0.4934684629995195
-0.4848185680132855
-0.4760089476854445
-0.4670436531502382
-0.4579267103596809
-0.448662118696887
-0.43925385004912787
-0.4297058482764263
-0.4200220290177916
-0.4102062797831238
-0.400262460284459
-0.39019440296523195
-0.38000591369083536
-0.3697007725685517
-0.35928273486847084
-0.34875553202078696
-0.3381228726681572
-0.32738844375473386
-0.3165559116361526
-0.30562892319714835
-0.29461110696560155
-0.2835060742137103
-0.27231742003866544
-0.26104872441669935
-0.24970355322568472
-0.2382854592325923
-0.22679798304314408
-0.21524465401184356
-0.20362899111134264
-0.19195450376073941
-0.18022469261296192
-0.16844305030188333
-0.15661306215021348
-0.14473820683952932
-0.13282195704414235
-0.12086778003070779
-0.10887913822568271
-0.096859489752915
-0.08481228894377027
-0.07274098682231356
-0.06064903156815869
-0.04853986895965122
-0.0364169428001096
-0.024283695329908477
-0.012143567627183223
0.0
0.0
0.0
0.0
0.0
0.0
0.0
0.0
0.0
0.0
0.0
0.0
0.0
0.0
0.0
0.0
0.0
0.0
0.0
0.0
0.0
0.0
0.0
0.0
0.0
0.0
0.0
0.0
0.0
0.0
0.0
0.0
0.0
0.0
0.0
0.0
0.0
0.0
0.0
0.0
0.0
0.0
0.0
0.0
0.0
0.0
0.0
0.0
0.0
0.00733455381361557
0.006881282828307349
0.006435322894136956
0.005996351443049993
0.005564047075685372
0.0051380894706448375
0.004718159286366223
0.004303938057242813
0.003895108085571713
0.003491352330849613
0.003092354297847494
0.0026977979248303816
0.0023073674731930076
0.0019207474197029098
0.001537622352449523
0.0011576768715045626
0.0007805954952201082
0.00040606257298859006
3.3762205209929635e-05
-0.00033662182888742913
-0.0007054061349925807
-0.0010729077585472776
-0.001439444230259377
-0.0018053336019774214
-0.0021708944726704644
-0.0025364460043376556
-0.002902307927743634
-0.0032688005379511408
-0.0036362446796885457
-0.00400496172266053
-0.004375273526969534
-0.00474750239890542
-0.005121971037409776
-0.00549900247161487
-0.005878919989895873
-0.006262047060990806
-0.006648707247790376
-0.007039224114499778
-0.007433921127936219
-0.00783312155383296
-0.008237148349096293
-0.008646324051055577
-0.00906097066484331
-0.009481409550126578
-0.009907961308517005
-0.010340945673071634
-0.010780681401391188
-0.011227486173915956
-0.011681676499093987
0.014665830840805421
0.013759427425423222
0.012867645317416562
0.011989839435832941
0.011125367043771702
0.010273587565684755
0.009433862389921496
0.00860555465981591
0.007788029056486566
0.006980651576384696
0.006182789306467053
0.005393810199720357
0.004613082853586947
0.00383997629366885
0.003073859764913167
0.0023141025322903244
0.001560073692809378
0.0008111420005264746
6.667570603066295e-05
-0.0006739575883073815
-0.0014113910561467029
-0.002146258757125457
-0.0028791957281019014
-0.00361083805506294
-0.004341822925202823
-0.005072788658797878
-0.005804374720696269
-0.006537221711353099
-0.007271971337484196
-0.008009266362561678
-0.008749750537491508
-0.009494068511969454
-0.010242865727151069
-0.010996788290406907
-0.011756482833061847
-0.012522596352211883
-0.013295776037831546
-0.01407666908655254
-0.014865922503663146
-0.01566418289505196
-0.016472096250990022
-0.0172903077238329
-0.018119461401905276
-0.018960200082026625
-0.019813165043314273
-0.020678995825095886
-0.021558330011960655
-0.022451803029124345
-0.023360047951488352
0.021990554656367282
0.020631295898018636
0.01929396710842969
0.017977600804869952
0.016681233037327922
0.015403903111355626
0.014144653288882009
0.012902528471959527
0.01167657587421642
0.010465844684571849
0.00926938572755049
0.008086251124281792
0.00691549395801962
0.0057561679477494
0.004607327133184314
0.0034680255741724995
0.002337317067275949
0.0012142548820030894
9.789151891335165e-05
-0.0010127215084740255
-0.002118533866221093
-0.00322049656556037
-0.004319562100305666
-0.005416684555121763
-0.006512819683910104
-0.007608924957785084
-0.008705959582343182
-0.009804884484136842
-0.010906662266460272
-0.012012257134776955
-0.01312263479231417
-0.01423876230655715
-0.015361607947585246
-0.01649214099942038
-0.017631331545716646
-0.018780150231436976
-0.01993956800231926
-0.021110555824202952
-0.02229408438453405
-0.023491123778621753
-0.024702643183486965
-0.025929610522415804
-0.027172992123613113
-0.02843375237663212
-0.029712853390541666
-0.031011254658088166
-0.03232991273037634
-0.03366978090687073
-0.0350318089457786
0.02930544956007198
0.02749375103066197
0.025711288726494627
0.023956772931763265
0.022228918671953746
0.0205264453384829
0.018848076284162903
0.017192538396138685
0.01555856165268096
0.01394487866994216
0.01235022424446645
0.010773334896923437
0.009212948422176834
0.00766780345045396
0.006136639024019535
0.004618194193384575
0.0031112076367178494
0.0016144173057710681
0.000126560101263974
-0.0013536284197035301
-0.002827414301895549
-0.004296065413980839
-0.005760851632749564
-0.007223044988222564
-0.008683919768680371
-0.010144752584920775
-0.011606822393352844
-0.013071410477805745
-0.014539800390215216
-0.016013277850612836
-0.017493130607126477
-0.018980648256961757
-0.020477122029615692
-0.021983844533878104
-0.02350210947037764
-0.0250332113118615
-0.026578444953597853
-0.028139105336647215
-0.029716487047084975
-0.03131188389459001
-0.03292658847417532
-0.03456189171520105
-0.03621908242218698
-0.03789944681232292
-0.03960426805496004
-0.04133482581875836
-0.0430923958325304
-0.04487824946620614
-0.046693653338682826
0.03660724094545775
0.034343656630193925
0.03211661156658839
0.02992449403448821
0.027765698290026834
0.025638624087038757
0.023541676162329595
0.02147326369315573
0.019431799734935418
0.017415700646860287
0.015423385512675938
0.013453275563481713
0.011503793608957386
0.009573363482981077
0.00766040950913877
0.0057633559911644434
0.0038806267328928396
0.0020106445918419624
0.000151831070100661
-0.0016973940542853996
-0.0035386130525519935
-0.005373410524770639
-0.007203373631716381
-0.009030092277450705
-0.010855159241426472
-0.012680170259267324
-0.014506724051732929
-0.016336422301733572
-0.01817086957959938
-0.020011673217141365
-0.021860443131380036
-0.023718791599153733
-0.025588332984162986
-0.027470683418377342
-0.02936746043999298
-0.03128028259065137
-0.03321076897488873
-0.03516053878523399
-0.037131210796774027
-0.03912440283544437
-0.04114173122474271
-0.04318481021601808
-0.04525525140797372
-0.04735466316149657
-0.04948465001641868
-0.05164681211729521
-0.05384274465578137
-0.056074037337648264
-0.05834227388293731
0.043892655676176354
0.04117787787658672
0.03850693827973869
0.03587790345316111
0.03328884720849814
0.0307378500133882
0.028222998360445468
0.025742384103443407
0.023294103770395085
0.020876257862771426
0.01848695014963497
0.01612428696491615
0.013786376515560288
0.011471328207699395
0.009177251997453569
0.006902257772409464
0.0046444547692508515
0.0024019510324710678
0.00017285291856434522
-0.002044735350514991
-0.004252712081184276
-0.006452978446605655
-0.00864743876724517
-0.010838000731714221
-0.013026575556474044
-0.015215078083425215
-0.01740542681480156
-0.01959954388521908
-0.021799354971134104
-0.02400678913835739
-0.026223778628676052
-0.028452258587021356
-0.030694166731041066
-0.032951442965375555
-0.035226028943228134
-0.03751986757846516
-0.03983490251177542
-0.04217307753495741
-0.04453633597788888
-0.04692662006324976
-0.04934587023460783
-0.05179602446402656
-0.05427901754593298
-0.05679678038457371
-0.05935123928297158
-0.061944315241897904
-0.06457792327797238
-0.06725397177057457
-0.06997436184781317
0.05115842247240604
0.04799328168244118
0.0448792731006698
0.04181414194174769
0.03879564197139277
0.03582153480108931
0.032889589133418703
0.029997579969902884
0.02714328779275389
0.024324497731392176
0.021538998723999073
0.018784582683768723
0.01605904367888248
0.013360177134571117
0.010685779064967014
0.00803364534179804
0.005401571006286055
0.0027873496299831045
0.00018877272963791565
-0.0023963707595158613
-0.0049702949480695015
-0.0075352173911981245
-0.010093359419119749
-0.012646946397107405
-0.015198207913419123
-0.017749377894021832
-0.020302694643469156
-0.022860400811775886
-0.025424743287588595
-0.02799797301841746
-0.030582344759148408
-0.03318011675050724
-0.035793550329620324
-0.038424909475324204
-0.04107646029122494
-0.04375047043023554
-0.04644920846466978
-0.049174943206588356
-0.051929942983673226
-0.0547164748764916
-0.05753680392365146
-0.06039319230199938
-0.06328789848968515
-0.0662231764206197
-0.06920127463954902
-0.07222443546768405
-0.07529489418953612
-0.07841487827230471
-0.0815866066298311
0.05840127230980907
0.05478673706323585
0.051230622184470026
0.047730351967143106
0.044283360608129325
0.04088709137607398
0.037538995724416505
0.03423653236261799
0.030977166298730284
0.02775836786580245
0.02457761174393311
0.021432375989056444
0.018320141078806158
0.01523838898503598
0.012184602281794627
0.009156263296791749
0.006150853313620974
0.003165851831237013
0.00019873588647413814
-0.0027530205554205465
-0.005691947137752222
-0.008620577573282284
-0.011541450025994222
-0.014457107411305976
-0.017370097612914116
-0.02028297361501849
-0.023198293549236006
-0.026118620656039322
-0.029046523161086843
-0.031984574067314794
-0.034935350864185116
-0.03790143515598505
-0.04088541221159972
-0.0438898704387547
-0.046917400786114144
-0.049970596077447166
-0.0530520502824539
-0.056164357729570916
-0.059310112266709486
-0.06249190637656138
-0.06571233025385002
-0.06897397085263418
-0.07227941091256618
-0.07563122797381153
-0.07903199339115449
-0.08248427135865169
-0.08599061795703308
-0.08955358023686272
-0.09317569535128242
0.06561793883352914
0.06155511552043266
0.05755799395401755
0.053623678017022954
0.049749282898746625
0.04593193412700913
0.042168766538880964
0.03845692320576176
0.03479355432773692
0.03117581611137224
0.02760086964432206
0.02406587977928431
0.020568014038968997
0.017104441552878977
0.013672332035796682
0.010268854816988585
0.006891177928269019
0.00353646725819309
0.0002018857788170413
-0.003115407149433508
-0.0064182563898073
-0.009709511554256912
-0.012992027438057966
-0.016268664361362047
-0.019542288415709742
-0.02281577161414352
-0.026091991944191092
-0.02937383332356222
-0.03266418545899594
-0.035965943609243205
-0.03928200825374285
-0.042615284669109715
-0.04596868241612567
-0.04934511474054663
-0.05274749789149806
-0.056178750362101876
-0.05964179205744591
-0.06313954339578527
-0.06667492434959016
-0.07025085343381907
-0.07387024664962435
-0.07753601639255175
-0.08125107033517115
-0.08501831029500592
-0.08884063109958906
-0.09272091946141264
-0.09666205287652091
-0.10066689856145633
-0.10473831244420415
0.07280515878966777
0.06829529143949598
0.06385839945985877
0.05949126691780722
0.05519069064706109
0.05095347913157931
0.04677645132263643
0.042656435406942056
0.03859026754254854
0.03457479057842387
0.030606852772651152
0.026683306523246693
0.022801007124611812
0.018956811561621528
0.015147577352336399
0.011370161449327603
0.007621419208597504
0.003898203434120586
0.0001973635050772156
-0.003484255408143573
-0.0071498130337398595
-0.010802474589808377
-0.014445411273493648
-0.018081800645114977
-0.021714826905144667
-0.02534768106260966
-0.028983560994152033
-0.0326256713936229
-0.03627722361271776
-0.039941435393760424
-0.04362153049636108
-0.047320738220271205
-0.05104229282738508
-0.054789432866511445
-0.05856540040502904
-0.062373440172497706
-0.0662167986217974
-0.07009872291424277
-0.07402245983589434
-0.07799125465316664
-0.08200834991673153
-0.08607698422368097
-0.0902003909489107
-0.09438179695772986
-0.09862442131278587
-0.1029314739894869
-0.10730615461522142
-0.11175165124878371
-0.11627113921751533
0.07995967247665256
0.07500414250483975
0.07012885275416982
0.06533026816402845
0.06060486796272762
0.05594914438936648
0.05135960134450672
0.046832752989197104
0.042365122310980344
0.03795323967450266
0.03359364137330445
0.02928286819827243
0.02501746403710424
0.02079397451800946
0.016608945709715436
0.012458922888713515
0.00834044938357516
0.004250065505065371
0.00018430756974409127
-0.0038602929763716467
-0.007887210328232721
-0.011899924981667987
-0.015901924278849847
-0.01989670283628752
-0.023887762853101378
-0.027878614298104308
-0.03187277497490979
-0.035873770464998525
-0.03988513394932398
-0.04391040590969761
-0.047953133711840304
-0.05201687107262137
-0.05610517741467454
-0.06022161711230724
-0.06436975863313003
-0.06855317358087047
-0.07277543564537566
-0.07704011946675476
-0.0813507994214618
-0.08571104833907868
-0.09012443615956145
-0.09459452854175923
-0.09912488543516268
-0.1037190596279842
-0.10838059528589986
-0.11311302649703481
-0.11791987584003498
-0.12280465299334466
-0.12777085340508573
0.08707822421888844
0.08167855013366909
0.0763663712803896
0.07113783426032821
0.06598910155309719
0.06091635006194086
0.05591576958380484
0.05098356122579098
0.04611593578855762
0.041309112136083084
0.03655931557001357
0.03186277622557389
0.027215727504753397
0.022614404561190182
0.0180550428498945
0.013533876753688012
0.009047138296982837
0.004591055956319818
0.00016185357592508372
-0.004244250604683844
-0.00863104480480385
-0.013002324433497532
-0.017361892693245083
-0.02171356105313004
-0.026061149589249485
-0.0304084871908343
-0.03475941163133184
-0.03911776950444154
-0.043487416025785514
-0.047872214701581435
-0.052276036866368294
-0.05670276109249628
-0.06115627247479203
-0.0656404617945813
-0.07015922456777816
-0.0747164599828571
-0.07931606973510791
-0.08396195676456529
-0.08865802390595715
-0.09340817246002917
-0.0982163006967078
-0.10308630230173749
-0.10802206477966127
-0.11302746782731735
-0.11810638169339543
-0.12326266554099086
-0.12850016583154902
-0.1338227147500316
-0.1392341286926006
0.0941575628650201
0.08831539993062387
0.08256797628002137
0.07691112107721723
0.07134068102569321
0.06585251872069027
0.06044251092297949
0.0551065467778801
0.04984052600207824
0.044640357059502325
0.039501955346146644
0.03442124140233864
0.029394139169525997
0.024416574307199235
0.019484472584152156
0.01459375835685813
0.009740353146359772
0.0049201743237403065
0.00012913391295389838
-0.004636862481536573
-0.009381916615745993
-0.014110138410685983
-0.018825646616112586
-0.02353256933025376
-0.02823504437315766
-0.03293721951216948
-0.03764325253884522
-0.04235731119737514
-0.04708357296530981
-0.05182622468810204
-0.05658946206966507
-0.061377489021845894
-0.06619451687642816
-0.0710447634640716
-0.07593245206515485
-0.08086181023863878
-0.08583706853569431
-0.09086245910588013
-0.09594221420467283
-0.1010805646122664
-0.10628173797473195
-0.1115499570799191
-0.11688943808184236
-0.12230438868873625
-0.12779900633148322
-0.133377476330688
-0.13904397008231062
-0.14480264328340534
-0.15065763422117706
0.10119444231309235
0.0949115821650582
0.08873069321803126
0.08264728822165483
0.07665689920202072
0.07075507560282672
0.06493738234561214
0.05919939783505064
0.05353671193391501
0.04794492393084229
0.042419640522502494
0.036956473830195506
0.03155103946930607
0.026198954688430594
0.02089583659340376
0.015637300469875437
0.010418958216573692
0.005236416899910241
8.527743918142688e-05
-0.005038866569831896
-0.010140429886021981
-0.015223836503619572
-0.02029352037795651
-0.025353925993039896
-0.03040950876859743
-0.03546473530515356
-0.04052408346654382
-0.04559204230004123
-0.050673111795034566
-0.05577180248190605
-0.06089263487347464
-0.06604013875206945
-0.07121885230602801
-0.07643332112022444
-0.08168809702580274
-0.08698773681549243
-0.09233680083151063
-0.09773985143418695
-0.10320145136049852
-0.10872616198289345
-0.11431854148006701
-0.11998314293273765
-0.12572451235896243
-0.13154718670512144
-0.1374556918103795
-0.1434545403641972
-0.14954822987827193
-0.15574124069617562
-0.1620380340658384
0.10818562206478666
0.1014639922726679
0.09485155222813538
0.08834349942336123
0.0819350524432955
0.07562144887586261
0.0693979431398275
0.0632598042586133
0.05720231360681183
0.05122076265443147
0.04531045073222363
0.03946668283965757
0.03368476751532755