# vtk DataFile Version 2.0
mesh vtk view
ASCII
DATASET UNSTRUCTURED_GRID
POINTS 4 double
0.0 0.0 0.0
3.0 0.0 0.0
0.0 0.0 -3.0
0.0 -4.0 0.0

CELLS 3 9
2 0 1
2 0 2
2 0 3

CELL_TYPES 3
3
3
3

CELL_DATA 3
SCALARS CellEntityIds float 1
LOOKUP_TABLE default
1.0
2.0
3.0
