# vtk DataFile Version 2.0
mesh vtk view
ASCII
DATASET UNSTRUCTURED_GRID
POINTS 11 double
0.11520000000002739 0.0 0.0
1000.0 0.0 0.0
99.99999999996535 -6.47999999999608 0.0
199.88479999979472 -20.47999999996858 0.0
299.84639999967834 -35.279999999956715 0.0
399.8655999997152 -46.079999999978035 0.0
499.9231999997631 -50.0 0.0
599.9999999998547 -46.08000000001124 0.0
700.0767999998913 -35.280000000014766 0.0
800.1343999999274 -20.480000000011252 0.0
900.1535999999636 -6.480000000004224 0.0

CELLS 10 30
2 0 2
2 2 3
2 3 4
2 4 5
2 5 6
2 6 7
2 7 8
2 8 9
2 9 10
2 10 1

CELL_TYPES 10
3
3
3
3
3
3
3
3
3
3

CELL_DATA 10
SCALARS CellEntityIds float 1
LOOKUP_TABLE default
7.200000000001146
2.4000000000047597
-1.199999999992307
-3.599999999994422
-4.799999999998473
-4.8000000000011305
-3.6000000000023964
-1.200000000002753
2.3999999999978128
7.199999999999241
