# vtk DataFile Version 2.0
mesh vtk view
ASCII
DATASET UNSTRUCTURED_GRID
POINTS 5151 double
0.0 -0.48196302692809895 0.0
200.0 0.0 0.0
199.86751036355437 99.85526602074536 0.0
0.0 99.51884769678736 0.0
2.001559091925777 -0.4819165418438749 0.0
4.003117500614932 -0.48177710057458883 0.0
6.004674542906237 -0.48154474506898026 0.0
8.006229535790332 -0.4812195452368391 0.0
10.007781796488022 -0.4808015989417205 0.0
12.009330642529102 -0.48029103199048806 0.0
14.010875391833755 -0.47968799811943225 0.0
16.012415362795906 -0.4789926789766369 0.0
18.013949874371512 -0.4782052841001745 0.0
20.015478246171483 -0.4773260508916476 0.0
22.016999798557464 -0.476355244584501 0.0
24.01851385274324 -0.4752931582064387 0.0
26.020019730901254 -0.47414011253519306 0.0
28.02151675627844 -0.47289645604679786 0.0
30.023004253316703 -0.47156256485541115 0.0
32.02448154777827 -0.4701388426436369 0.0
34.02594796688204 -0.4686257205821629 0.0
36.02740283944775 -0.46702365723743705 0.0
38.02884549604863 -0.4653331384659482 0.0
40.03027526917341 -0.46355467729358113 0.0
42.031691493397815 -0.4616888137783366 0.0
44.03309350556628 -0.4597361148545844 0.0
46.03448064498369 -0.4576971741568396 0.0
48.03585225361801 -0.45557261182089503 0.0
50.037207676313415 -0.4533630742599619 0.0
52.03854626101438 -0.4510692339132679 0.0
54.03986735900077 -0.4486917889643883 0.0
56.04117032513351 -0.44623146302633865 0.0
58.042454518111086 -0.4436890047902541 0.0
60.04371930073625 -0.4410651876342404 0.0
62.04496404019247 -0.4383608091887046 0.0
64.04618810833244 -0.4355766908542178 0.0
66.04739088196852 -0.4327136772676806 0.0
68.04857174316922 -0.4297726357122359 0.0
70.04973007957702 -0.42675445546600865 0.0
72.05086528471642 -0.4236600470844827 0.0
74.05197675830917 -0.4204903416108483 0.0
76.05306390659003 -0.41724628970828714 0.0
78.05412614262129 -0.41392886070767665 0.0
80.05516288660272 -0.41053904156371634 0.0
82.05617356617401 -0.4070778357119199 0.0
84.05715761670629 -0.40354626181829256 0.0
86.0581144815781 -0.3999453524128692 0.0
88.05904361243189 -0.3962761523974798 0.0
90.05994446940522 -0.3925397174172796 0.0
92.06081652133122 -0.3887371120845887 0.0
94.06165924590175 -0.38486940804245273 0.0
96.06247212978568 -0.3809376818540549 0.0
98.06325466869454 -0.37694301270260944 0.0
100.064006367386 -0.3728864798845995 0.0
102.06472673959537 -0.3687691600772106 0.0
104.06541530788361 -0.36459212435836175 0.0
106.06607160338919 -0.36035643495493674 0.0
108.06669516546934 -0.3560631416913953 0.0
110.06728554121472 -0.3517132781069616 0.0
112.06784228482036 -0.34730785720475577 0.0
114.06836495679084 -0.3428478667904843 0.0
116.06885312295788 -0.3383342643513622 0.0
118.0693063532833 -0.3337679714175774 0.0
120.0697242204167 -0.3291498673384644 0.0
122.07010629797405 -0.3244807823932584 0.0
124.07045215849436 -0.3197614901412956 0.0
126.07076137102793 -0.31499269889819387 0.0
128.07103349830527 -0.31017504220202835 0.0
130.07126809340156 -0.30530906810584546 0.0
132.07146469582534 -0.30039522709850686 0.0
134.07162282696913 -0.2954338584131574 0.0
136.07174198474533 -0.29042517442960003 0.0
138.07182163730084 -0.28536924280979387 0.0
140.07186121562313 -0.28026596592136793 0.0
142.07186010482016 -0.2751150569967269 0.0
144.07181763379467 -0.2699160123380068 0.0
146.07173306296772 -0.26466807870107656 0.0
148.07160556960585 -0.2593702147616257 0.0
150.0714342301833 -0.25402104526454516 0.0
152.07121799904556 -0.24861880605815495 0.0
154.07095568241198 -0.24316127768017226 0.0
156.07064590645345 -0.23764570443889255 0.0
158.07028707776024 -0.23206869494216936 0.0
160.06987733393393 -0.22642609865133906 0.0
162.06941448121177 -0.22071285110001976 0.0
164.068895914861 -0.21492277764547432 0.0
166.06831851636304 -0.20904834158321312 0.0
168.0676785188783 -0.20308031646229047 0.0
170.06697132864224 -0.19700735335013686 0.0
172.06619128401894 -0.19081539967872277 0.0
174.06533132451452 -0.18448690379990124 0.0
176.06438252668767 -0.1779997023202364 0.0
178.0633334377997 -0.17132542459897954 0.0
180.06216909279303 -0.16442713588937868 0.0
182.06086951370577 -0.15725574189168415 0.0
184.0594073396313 -0.1497442297380296 0.0
186.057743824064 -0.1417982081728037 0.0
188.05582201902251 -0.1332779844395947 0.0
190.05355182214382 -0.12396979920262044 0.0
192.05078574090933 -0.1134892136355654 0.0
194.04719246615036 -0.10124917618025805 0.0
196.04210867398035 -0.08508634845110197 0.0
198.03145295384027 -0.06494901241612394 0.0
200.02486153972526 1.9543051219405199 0.0
200.02657055510602 3.934250230726468 0.0
200.0280649238335 5.9229666621057815 0.0
200.02758616394638 7.9149081406071895 0.0
200.026341218096 9.908655942177376 0.0
200.02456461026958 11.903529478393288 0.0
200.02244086867552 13.899188157942849 0.0
200.0200664936366 15.895426271939733 0.0
200.01750486297385 17.892111779210882 0.0
200.01479815199195 19.889154458517606 0.0
200.01197597309508 21.886490094507003 0.0
200.00905968683838 23.88407140278419 0.0
200.0060650553192 25.88186260218385 0.0
200.0030038864506 27.8798359835054 0.0
199.99988511314288 29.877969657034882 0.0
199.99671552493018 31.87624602323306 0.0
199.99350028019543 33.874650704950646 0.0
199.99024327449055 35.87317178350413 0.0
199.9869474118106 37.871799240444226 0.0
199.98361480875147 39.87052454184457 0.0
199.980246951252 41.86934032347631 0.0
199.9768448172262 43.86824014870975 0.0
199.9734089742845 45.86721831971482 0.0
199.9699396590447 47.8662697283008 0.0
199.966436842723 49.86538973662899 0.0
199.96290028645944 51.86457408071039 0.0
199.9593295889761 53.863818791476135 0.0
199.95572422856773 55.86312012954381 0.0
199.95208360100344 57.86247453076961 0.0
199.94840705462124 59.86187856038875 0.0
199.9446939236938 61.86132887408215 0.0
199.94094356100632 63.86082218472268 0.0
199.93715537050386 65.86035523388067 0.0
199.93332884082474 67.85992476741214 0.0
199.9294635805311 69.8595275148216 0.0
199.92555935587606 71.85916017214227 0.0
199.92161613200338 73.8588193884883 0.0
199.91763411855837 75.85850175667565 0.0
199.91361382079305 77.85820380871591 0.0
199.90955609735914 79.85792201753424 0.0
199.905462226069 81.85765280706632 0.0
199.9013339788915 83.85739257412128 0.0
199.89717370716346 85.85713772736933 0.0
199.8929844370112 87.85688475211447 0.0
199.88876997220714 89.85663031531203 0.0
199.88453499417972 91.85637143601275 0.0
199.88028512744563 93.85610576720526 0.0
199.8760268709256 95.8558320735366 0.0
199.87176706233416 97.85555102879205 0.0
197.86741537157883 99.85101130342824 0.0
195.867316416634 99.84675969130062 0.0
193.86721012292955 99.84250650153118 0.0
191.86709586079337 99.83824486645075 0.0
189.86697495502057 99.83396827540619 0.0
187.8668498875137 99.8296711434836 0.0
185.86672380963168 99.82534891078159 0.0
183.86660024395354 99.82099800227213 0.0
181.86648289362589 99.81661574717982 0.0
179.86637551513653 99.81220028986237 0.0
177.86628183056092 99.80775050307204 0.0
175.8662054656307 99.8032659071046 0.0
173.86614990547244 99.79874659561067 0.0
171.86611846293806 99.79419316785386 0.0
169.8661142562364 99.78960666688941 0.0
167.86614019365877 99.78498852309137 0.0
165.86619896385903 99.78034050251024 0.0
163.86629303057595 99.77566465962126 0.0
161.86642463096075 99.77096329410179 0.0
159.86659577685617 99.76623891134085 0.0
157.86680825849896 99.76149418643452 0.0
155.86706365020254 99.7567319314571 0.0
153.86736331764516 99.75195506582311 0.0
151.86770842643134 99.7471665895708 0.0
149.8680999516398 99.74236955940701 0.0
147.86853868810027 99.73756706735786 0.0
145.86902526117325 99.73276222187107 0.0
143.86956013783248 99.72795813121617 0.0
141.87014363787475 99.723157889028 0.0
139.87077594510694 99.71836456183911 0.0
137.87145711837897 99.7135811784467 0.0
135.87218710235527 99.7088107209619 0.0
133.87296573793432 99.70405611739106 0.0
131.87379277224545 99.6993202356034 0.0
129.87466786816614 99.69460587854387 0.0
127.87559061332006 99.68991578055622 0.0
125.87656052852041 99.68525260468823 0.0
123.8775770756772 99.68061894085834 0.0
121.87863966510454 99.67601730477115 0.0
119.87974766226473 99.67145013747752 0.0
117.8809003939658 99.66691980548315 0.0
115.88209715401138 99.66242860131861 0.0
113.88333720832736 99.65797874449122 0.0
111.88461979959006 99.65357238274798 0.0
109.8859441513801 99.64921159358605 0.0
107.88730947189143 99.64489838595465 0.0
105.88871495722381 99.64063470209928 0.0
103.89015979428852 99.63642241950525 0.0
101.8916431633565 99.63226335290375 0.0
99.89316424027824 99.62815925630865 0.0
97.89472219840349 99.6241118250576 0.0
95.89631621022812 99.62012269783499 0.0
93.89794544879412 99.61619345865833 0.0
91.89960908886742 99.61232563881345 0.0
89.90130630791654 99.60852071872642 0.0
87.90303628691377 99.60478012976344 0.0
85.90479821097938 99.60110525595158 0.0
83.90659126988642 99.59749743561608 0.0
81.90841465844453 99.59395796293082 0.0
79.91026757677707 99.5904880893807 0.0
77.91214923050666 99.58708902513553 0.0
75.91405883086121 99.58376194033603 0.0
73.91599559471294 99.58050796629382 0.0
71.91795874455477 99.5773281966071 0.0
69.91994750844071 99.57422368819529 0.0
67.92196111989036 99.5711954622554 0.0
65.92399881773102 99.56824450514374 0.0
63.92605984594124 99.56537176918651 0.0
61.92814345346705 99.56257817342312 0.0
59.93024889402236 99.55986460428616 0.0
57.932375425878675 99.55723191622158 0.0
55.93452231164716 99.55468093225332 0.0
53.93668881805662 99.55221244449568 0.0
51.93887421573022 99.54982721461754 0.0
49.941077778962324 99.54752597426157 0.0
47.94329878549846 99.54530942542219 0.0
45.94553651631926 99.5431782407851 0.0
43.94779025542944 99.54113306403197 0.0
41.9500592896534 99.53917451011286 0.0
39.952342908437814 99.53730316548922 0.0
37.95464040366149 99.53551958835017 0.0
35.95695106945351 99.53382430880436 0.0
33.9592742020194 99.53221782904978 0.0
31.96160909947534 99.53070062352357 0.0
29.963955061690687 99.52927313903376 0.0
27.966311390138664 99.52793579487489 0.0
25.968677387754788 99.526688982929 0.0
23.971052358802712 99.5255330677536 0.0
[...]
POINT_DATA 5151
SCALARS STRESS_EQV float 1
LOOKUP_TABLE default
158.86767067361154
4065.370457812956
29.959049543984534
246.43956635542997
158.83254434718145
158.72716927785
158.55155722396103
158.3057278776819
157.989709007361
157.6035366566719
157.14725540043057
156.62091865684943
156.02458905599218
155.35833886398524
154.62225046243378
153.81641688244432
152.94094239224304
151.99594313733667
150.98154783179484
149.89789849895055
148.74515125935847
147.52347716332062
146.23306306513356
144.8741125352554
143.44684680604462
141.95150574611114
140.3883488573856
138.75765628811
137.0597298538958
135.29489405805722
133.46349710100063
131.5659118672288
129.60253687706268
127.57379718856161
125.48014523344656
123.32206156895985
121.1000555257313
118.81466572945558
116.46646047203029
114.0560379054485
111.58402602915339
109.05108243898499
106.45789380309199
103.80517502733304
101.09366806985659
98.32414036179185
95.49738278819746
92.61420718100528
89.67544327397084
86.68193506855792
83.63453656039997
80.53410677903585
77.38150410064478
74.17757980717136
70.92317088912858
67.61909213043381
64.26612758280898
60.865021653871125
57.41647023091518
53.921112602570446
50.379525537726764
46.792221957683566
43.15965864175458
39.48226129074629
35.76048317538852
31.994930654066994
28.186628434842397
24.337598054439738
20.452209916112096
16.540721225846795
12.630300052476201
8.810122631290247
5.496653464510269
4.298362167421527
6.234795656152176
9.991018640565548
14.258540474397307
18.755087150103705
23.424160231314097
28.258605790280527
33.26885908575449
38.47527764195486
43.90638958704078
49.599245428420794
55.60091808457203
61.97098587934547
68.78515992850897
76.14045702366026
84.162607613918
93.01682847800947
102.92382641986109
114.18420574294217
127.21684431523275
142.62157684039695
161.28559468694266
184.5768866754908
214.7019735722606
255.52407533687966
314.02151724124894
406.6762080027467
565.5265815657255
954.3292058235816
2653.7587878457966
2955.9004804417355
1496.9875168242227
996.8687910592496
754.7437596758427
604.3632451817166
503.8217276265326
431.33257376377105
376.5588356793396
333.5750146421324
298.8332011617558
270.06473168253797
245.75712776823957
224.8645482046595
206.64246308280548
190.54776099149353
176.1761090887059
163.2212885464749
151.44802366396618
140.67336132187484
130.7536244973067
121.57509049082879
113.04721345700128
105.09761931698634
97.66835718648218
90.71305570770376
84.19474025637597
78.08413878057885
72.3583527231958
66.99980297828921
61.995384124353336
57.335776454025975
53.01487661421787
49.029315233683306
45.37803441918495
42.06189964157565
39.08331907336617
36.445838267641406
34.15366833982985
32.21109072446957
30.62166064735318
29.387104267356385
28.505768870221026
27.970433720834514
27.76520327355516
27.861060417830334
28.209461337486708
28.733275280427463
29.315311217351294
29.781197169284596
30.058922526715328
30.330305814755285
30.66947177985552
30.96457212203653
31.153884365272035
31.19562733579351
31.06544198915975
30.755606587435793
30.27456323824643
29.64680907128891
28.913251221933898
28.131882755626783
27.3782339206074
26.74446821258019
26.33538863722047
26.259610828532402
26.615719550365004
27.476552310553203
28.877699480703562
30.8154281046153
33.25420561389077
36.13913597348581
39.40780729276217
42.99854762794462
46.854830402340255
50.92690794466125
55.17188243715194
59.55307399663949
64.0391720020859
68.60340036305396
73.22278515153968
77.87754425695181
82.55059005041967
87.22712685191087
91.89432428755963
96.54105006224626
101.15764886479673
105.73575711446938
110.26814574258776
114.74858515050434
119.17172796240826
123.53300629120594
127.82854104524728
132.05506139537954
136.2098329531101
140.29059352462266
144.29549553431974
148.22305437918794
152.07210209881313
155.84174583807498
159.5313306489212
163.14040623138487
166.66869725626594
170.11607694608463
173.4825436193682
176.76819992774773
179.9732345369193
183.09790602151975
186.1425287617273
189.10746064569048
191.99309239686994
194.79983835983955
197.52812859150774
200.17840211718715
202.75110122297917
205.24666666708777
207.66553370311652
210.00812881819698
212.27486709799956
214.46615013906333
216.58236443676998
218.62388018464097
220.59105042713298
222.48421051437504
224.30367781289226
226.04975163138624
227.72271332536698
229.3228265485809
230.85033762310402
232.3054760032785
233.68845481177985
234.99947142896735
236.23870811900377
237.40633267851433
238.5024990955024
239.52734820789834
240.4810083527525
241.36359599833781
242.1752163525677
242.91596394231902
243.58592315893287
244.18516876607384
244.7137663667584
245.1717728268363
245.55923665285735
245.8761983225539
246.12269056651735
246.29873860002226
246.40436030412542
241.66062231164597
232.18590436800002
222.87389773577996
213.71734994880566
204.70902125071305
195.84168821737262
187.10814770215393
178.50122117055207
170.01375953445967
161.6386486573994
153.36881578899295
145.19723731332988
137.1169483839545
129.12105530441966
121.20275195979067
113.355342319129
105.5722722056093
97.84717552919236
90.17394368964104
82.54683327951791
74.96063949495408
67.4109873907841
59.89484606925775
52.41149291062817
44.96446242237909
37.5658802991931
30.24739389563201
23.0928565531735
16.36079060133143
11.019048264102478
9.51582146732678
12.922685205106426
19.16970529310595
26.34726205681918
33.888998315785386
41.633746706349115
49.52523289640696
57.541718545837014
65.67534160865904
73.92467680600342
82.29162188966987
90.77993995727799
99.39451586500184
108.14095042089535
117.02532659291168
126.05406873536501
135.2338546679413
144.57155904311833
154.07421587378826
154.03986758948543
144.53881424048447
135.20281274180138
126.02483958853968
116.99803371465077
108.11573510846
99.37154315246113
90.7594071629352
82.27377130744352
73.90981519956185
65.66387136866922
57.53418990751767
49.522436639165406
41.636890797982595
33.90007522650005
26.369894898206756
19.211252694567758
12.997641853437715
9.62525790497856
11.12526743689947
16.437621458042432
23.14871492639743
30.290305017601597
37.59995601028176
44.99191808189715
52.43363110359299
59.912491177254914
67.42469283881954
74.97079519099077
82.55372544917904
90.17779023647982
97.8481479841646
105.5705099222582
113.35096197565579
121.19585410702408
129.1117289896357
137.1052744829015
145.1832909710987
153.35266823072112
161.62036854302292
169.99341397636704
178.47887649685418
187.08387002418175
195.81554384365128
204.68107697830743
213.68767325502856
222.84255688763847
232.15296846266588
241.6261612583377
153.93682664760286
144.44058384057814
135.10969128138822
125.93715703965674
116.91616086735425
108.04009624479434
99.30263384228326
90.69781991315227
82.22023363320224
73.86524807404301
65.62948257909066
57.511630357610706
49.51407740317781
41.646349760496065
33.93330744971552
26.437682955776985
19.335273877381873
13.219405635898244
9.946314654673271
11.437489424003743
16.665738517972898
23.315427611112156
30.41865864492891
37.70199374539386
45.07418464576125
52.49999200581978
59.96539937142177
67.46579791215365
75.0012607497612
82.57440644706207
90.18933800500817
97.85107553602788
105.56523423671547
113.33783233120727
121.17517162075936
129.08376042337952
137.0702621971928
145.14146021994554
153.3042325747979
161.5655339007413
169.9323816674248
178.41184552516253
187.0110387751933
195.7371113222351
204.59724367956184
213.59864173674907
222.74853209629924
232.054157852735
241.52277473600222
153.76510480832064
144.2768798924389
134.95450326529235
125.79103578957613
116.77972544347486
107.91405508751801
99.18781446322521
90.59521166666812
82.13105115772655
73.79102859797261
65.57224112470861
57.474119071322065
49.50024382049374
41.66220357981533
33.98869953491414
26.550298830860605
19.53996010680305
13.579349557919237
10.459460009427914
11.938320122282418
17.03839910560404
23.590477087462784
30.631333107209198
37.87143082767353
45.21096283277531
52.610415319752114
60.05348952919131
67.5342688842355
75.05203160200995
82.60888973907282
90.208611378326
97.85598875159765
105.55647865695971
113.31598756578067
121.1407377449716
129.0371807714229
137.0119398121928
145.07176991917146
153.2235299086205
161.47416186049705
169.83067572664567
178.30013742149282
186.88965932197402
195.60639245820266
204.4575199094434
213.4502510764005
222.59181660822588
231.88946383796386
241.35045263380243
153.5247217622872
144.04772256128115
134.73727040639295
125.58650042672542
116.58875653059626
107.73764718864018
99.02712938506404
90.45163838530831
82.0062946112455
73.68724567659262
65.49225712603169
57.421788274236505
49.48108369340908
41.68458530954681
34.06625931513763
26.707209860899308
19.822466723611463
14.065056949831153
11.138142256544734
12.60392767997065
17.545502972084563
23.969886812305454
30.926515519592904
38.107347474676374
45.401760293787156
52.76463630109788
60.176627330005815
67.63004982853877
75.12310019442171
82.65719776547543
90.2356509914844
97.86293859516736
105.5442990775159
113.28548471937256
121.0926079789229
128.972042081553
136.93035458025068
144.97426160995684
153.11059548035647
161.34628106367364
169.6883180958945
178.14376752199684
186.71974064930308
195.4233902796635
204.26190325822307
213.242494055822
222.3723991251254
231.65887185660097
241.10917802176158
153.21570526605177
143.75314025360865
134.4580232747129
125.32358555780708
116.34329506222267
107.51092257952823
98.82064105290948
90.26717883199629
81.84606353444161
73.55402439113547
65.38968541008798
57.354823642748194
49.456804115518224
41.713680686703924
34.16599827010037
26.90769649934309
20.17913282916925
14.662340589600994
11.954242500859138
13.408749110760084
18.17489056715823
24.448508155407005
31.301780293725276
38.40849253521339
45.64590098319259
52.96228930638607
60.33462656005943
67.75306303982575
75.21445608105076
82.71936193525976
90.27051372495798
97.87199645654384
105.52877385003461
113.24640380089235
121.03086021526207
128.88841744024808
136.82557288552434
144.8489936788432
152.96547885287885
161.18193180066902
169.50533965563528
177.94275742271572
186.5012954207961
195.18810906787326
204.01039035005368
212.97536052347868
222.09026374084428
231.3623613937712
240.79892703322167
152.8380913315178
143.3931697922626
134.11680146947427
125.00233599124732
116.04339402998144
107.23394603184714
98.56843031835437
90.04193499229457
81.65048680317332
73.39152661937253
65.26472617370666
57.27346486494058
49.42767163673642
41.74972759404921
34.287932010058675
27.15087597072594
20.605730890516938
15.356910944994128
12.881800003003907
14.328758128219267
18.91358442487885
25.02035185457263
31.75418762204597
38.773317118959305
45.9425376894964
53.20291260431742
60.52725089798362
67.90320961330718
75.32608604785662
82.79542261579036
90.3132726927923
97.88325418737017
105.51000387929965
113.19884793825776
120.9555949315511
128.7864011907997
136.6976804740643
144.69604158647064
152.78824411959965
160.9811662041625
169.28178038790438
177.69713510638425
186.23434006532466
194.90055440062113
203.70297684218417
212.64883734968413
221.74538985401355
230.999905854088
240.4196687009735
152.39192446923678
142.96785664123496
133.71365384042448
124.62280697387494
115.68911875837854
106.90679739651941
98.27059687062376
89.77603262385486
81.41972331231159
73.19995184297089
65.11762584328656
57.17800636200941
49.39401246786562
41.79301536967497
34.43208085791369
27.435729479803822
21.097710788014794
16.135437949085063
13.898721020546922
15.34304848380142
19.748757687036402
25.678919260659626
32.280393035921016
39.20001406190593
46.29066719282858
53.485954306188425
60.75421614239953
68.0803701713319
75.45797426690672
82.88542911527449
90.36401722267686
97.89682414282133
105.48811274187571
113.14294356722931
120.86693543330149
128.66610921161686
136.54678274854487
144.51549816147588
152.57897018252663
160.74404849878124
169.01768958749506
177.4069351073844
185.9188948902042
194.56073321018945
203.33965742609865
212.26290837104563
221.3377520575317
230.57147239937757
239.97136474775613
151.877257985296
142.47725518003082
133.24863875846626
124.18506448143931
115.28054724362202
106.52957202344756
97.92725977197613
89.46962193962
81.1539628257765
72.97953814900632
64.94867813639154
57.068798170300155
49.356212718915174
41.84388396467373
34.59847050324697
27.761131183193008
21.65041279177732
16.98606215253744
14.987079499216001
16.434226731045676
20.668367846493844
26.417499401302567
32.87675940863373
39.68656100405774
46.689147439114
53.810779243214014
61.0151928336864
68.2844057247234
75.61010247579809
82.98943965482115
90.42285282445091
97.91283922492482
105.46324682379282
113.07884065591232
120.76502814613661
128.5276792530188
136.3730051266673
144.307473959299
152.33775109291838
160.47065530803974
168.7131261225889
177.07219871634783
185.55498422279874
194.16865385752533
202.9204258321425
211.81755432559467
220.8673200062021
230.07702175263802
239.4539693320668
151.29415433151195
141.92142902732988
132.72182443566356
123.68918556371167
114.8177705583978
106.10238126548023
97.53855810272576
89.12287843210223
80.85342700167348
72.73056343469354
64.75822533161701
56.94624698402121
49.31471866429151
41.90272295036041
34.787132700034
28.125877254476407
22.25923628504537
17.89853210510596
16.132709598208034
17.588180723472327
21.661496441428483
27.22941224267995
33.539464092480614
40.230764899077464
47.13671608490285
54.17667659981974
61.30980921545227
68.51515865371519
75.78245017708622
83.10752132622913
90.48990114269841
97.9314529228129
105.43557547271661
113.00671296089868
120.65004295386954
128.37127133030202
136.17649346197155
144.07209768550743
152.06469645492552
160.1610760195179
168.3681587462429
176.69297422617313
185.1426365825061
193.7243262246601
202.44527483966021
211.31275278050126
220.33405826426946
229.5165079698125
238.8674287505446
150.64268550842866
141.30045141355185
132.13328929473363
123.135258745197
114.30089332498085
105.62535307084983
97.10465172241302
88.73600384771355
80.51837060342285
72.45334682634837
64.5466597543054
56.81081735819949
49.27003702655349
41.969970377203126
34.99810597929455
28.528713638932857
22.91976168141707
18.86413535859964
17.324559550529752
18.793607450962075
22.718474870958957
28.108191720204697
34.26459579506445
40.83030599217326
47.63200977215064
54.5828681024167
61.63765447614447
68.77245379144196
75.97499485153432
83.23975003076691
90.56529988810883
97.95283934417611
105.40529115903512
112.92675831014554
120.52217357861068
128.19706817035825
135.95741452551374
143.8095166831253
151.75993189256752
159.8154132094205
167.98286646048675
176.26931722157894
184.68188488549362
193.22776182788672
201.91419629514408
210.74847805475267
219.73792613498824
228.88987818117792
238.2116810984548
149.9229335205642
140.6144056018765
131.48312238810593
122.52338448264047
113.73003425953934
105.09863266919984
96.62572215505541
88.30922732204176
80.149082909908
72.1482503255652
64.31442548695605
56.663033071296596
49.222735269282666
42.046111488570155
35.23143634963616
28.968361441337365
23.627830011972566
19.875537479834023
18.554044443444614
20.041502265472232
23.830874894871954
29.04771159543326
35.048237867232295
41.48277963874135
48.173583532704725
55.02851656231314
61.99828220810831
69.0560995912558
76.18771217812562
83.38621039361243
90.64920274163177
97.9771932313273
105.37260963935765
112.8391989068539
120.38163799829387
128.00527570850042
135.71595654639896
143.51989748327247
151.4235995804786
159.43378312780197
167.55733893497683
175.80129091466102
184.1727666849574
192.6789739545725
201.3271811412543
210.12470113956508
219.07887747480197
228.19707230464022
237.4866558902266
149.1349908832196
139.86338535715615
130.77142386664258
121.85367568069127
113.1053267910771
104.52238335748767
96.1019736080418
87.84280668892072
79.74588933995136
71.81568069770971
64.0620203141903
56.503478646373836
49.17344188854983
42.13167729358034
35.48717796173641
29.44353925921652
24.379588060746947
20.926594175108615
19.814490040754393
21.324696487936095
24.991424251539872
30.042262523840236
35.88653655061828
42.18573473365373
48.75992978990208
55.512734578391985
62.391214020245854
69.36588935812696
76.42057625316178
83.54699564786819
90.74177922447066
98.00472995422295
105.33777011482809
112.74428164748538
120.22867889599503
127.79612363138295
135.45232980856053
143.2034264179247
151.0558588385705
159.0163162457182
167.0916769823445
175.28896652921816
183.61532445005216
192.07797782699092
200.68421946016815
209.4413896198424
218.35686049523324
227.4380227337518
236.69227364238952
148.27896117988303
139.04749546202885
129.99830549815323
121.12625826746242
112.42691975918537
103.89678739320989
95.53363413604228
87.33702997855903
79.30915330902636
71.45609162007946
63.78999791322067
56.332801028867124
49.12284669122462
42.22724300473759
35.76539371728103
29.95298211711217
25.17150764878476
22.012168714615708
21.10068748240525
22.637470684754607
26.19388792072705
31.086590676612964
36.775754220543405
42.936707928100255
49.389496510842804
56.03459321899351
62.81594324097262
69.70160252336998
76.67355979982383
83.72220748112215
90.84321452587078
98.03568547155744
105.30103537538245
112.64227844587398
120.06356413441267
127.56986596110275
135.16676730071663
142.8603102934144
150.6568867906697
158.5631578657064
166.58599309267632
174.73242373697752
183.00960588714486
191.42479079707618
199.98530053518346
208.69850760052617
217.57181755605544
226.61265400365428
235.8284454217841
147.35495966908192
138.16685227930307
129.16389123582934
120.34127183201483
111.69497819546228
103.22204700359464
94.92095696315192
86.79221712262749
78.83927833916111
71.069986109568
63.498970301763265
56.15171141819494
49.07170104732795
42.33342634768158
36.066155808711535
30.495456944868184
26.00038684098266
23.12796816965222
22.408549190335066
23.9752440328105
27.43293966044264
32.17590802919451
37.71230869557696
43.73325318703606
50.060704158112664
56.593130521195015
63.271938650289094
70.06300594143343
76.94663435894407
83.9119558369406
90.95370927997357
98.07031625013784
105.26269191997969
112.5334865542447
119.8865872478049
127.32678167462186
134.8595254155908
142.49077712275326
150.22687908705075
158.07446879691423
166.0404120296044
174.1317511491841
182.35566430746343
190.71943257649383
199.23041293510457
207.89601564228747
216.7236849539908
225.72088243887367
234.89507236250807
146.36311393928554
137.22158435961552
128.26831783678884
119.4988703262038
110.90968419450677
102.4983855212489
94.2642219790051
86.20872188704139
78.33671044598695
70.65791925229036
63.18961055627743
55.960987249296046
49.020818102732946
42.4508857521144
36.38954618221849
31.069774759332343
26.863339374990662
24.27040244247487
23.734847567753008
25.334330065796603
28.704037481013053
33.30588306432231
38.692800297026245
44.5729665592864
50.77196118609099
57.187359667887236
63.758648183232495
70.44985518739416
77.23977045121039
84.11635866292688
91.07347928185283
98.1088991312931
105.22305004134786
112.41822887051798
119.69806794230419
127.06717535149289
134.53088469367003
142.0950769142462
149.7660506903306
157.55042609611758
165.4550714906788
173.48704686724278
181.653559045593
189.9619255070475
198.41954462665515
207.03387071176127
215.8123927119326
224.76261578753582
233.892045155651
145.30356461015242
136.2118330930673
127.31173553087469
118.59922283376265
110.07123788144624
101.72604865859505
93.56373742742547
85.58693405684446
77.80194083052884
70.22050126024168
62.86265581413873
55.76147431883504
48.9710729378427
42.580318435279
36.73565692347476
31.674799855188507
27.75777705006893
25.43646563786346
25.077018007788734
26.711746675791307
30.00330979269142
34.47261887741376
39.714028611868
45.453506282839655
51.521677918431685
57.816276727362464
64.27550255145489
70.86189583375032
77.55293770022551
84.33554159598549
91.20275513177168
98.15173113191
105.18244386236576
112.29685421972093
119.49835259416956
126.79137784172786
134.18115060582036
141.67348251315767
149.27463672374813
156.99122387573067
164.83012283485837
172.79841909660053
180.90335593394545
189.15229487699003
197.5526831206837