# vtk DataFile Version 2.0
mesh vtk view
ASCII
DATASET UNSTRUCTURED_GRID
POINTS 5151 double
0.0 -1.1245803961655643 0.0
200.0 0.0 0.0
199.69085751496024 99.66228738173916 0.0
0.0 98.87731129250383 0.0
2.003637881170696 -1.1244719309690414 0.0
4.0072741681224295 -1.124146568007374 0.0
6.01090726681262 -1.123604405160954 0.0
8.014535583553306 -1.1228456055526244 0.0
10.018157525192718 -1.1218703975306812 0.0
12.021771499299733 -1.1206790746444721 0.0
14.02537591435391 -1.1192719956120085 0.0
16.02896917994138 -1.1176495842788194 0.0
18.032549706960236 -1.1158123295670737 0.0
20.036115907835928 -1.1137607854138443 0.0
22.039666196745657 -1.111495570697169 0.0
24.043198989855238 -1.109017369148357 0.0
26.046712705568723 -1.1063269292487838 0.0
28.05020576479567 -1.103425064109195 0.0
30.053676591232126 -1.1003126513292927 0.0
32.057123611656294 -1.0969906328351529 0.0
34.0605452562456 -1.0934600146917135 0.0
36.06393995891275 -1.0897218668873532 0.0
38.06730615766198 -1.0857773230872125 0.0
40.07064229496696 -1.0816275803516893 0.0
42.07394681817111 -1.0772738988161188 0.0
44.07721817991135 -1.0727176013273636 0.0
46.080454838565835 -1.0679600730326257 0.0
48.083655258726424 -1.0630027609154218 0.0
50.08681791169619 -1.0578471732732444 0.0
52.0899412760123 -1.0524948791309585 0.0
54.09302383799438 -1.0469475075835728 0.0
56.09606409231794 -1.041206747061457 0.0
58.09906054261281 -1.0352743445105927 0.0
60.10201170208535 -1.0291521044798944 0.0
62.104916094163706 -1.0228418881069774 0.0
64.10777225316728 -1.0163456119931749 0.0
66.1105787249893 -1.0096652469579215 0.0
68.11333406779534 -1.0028028166618839 0.0
70.11603685275122 -0.9957603960873536 0.0
72.11868566474755 -0.9885401098637929 0.0
74.121279103135 -0.9811441304253127 0.0
76.12381578246136 -0.9735746759860033 0.0
78.12629433320535 -0.9658340083179122 0.0
80.1287134024997 -0.9579244303153381 0.0
82.13107165483711 -0.9498482833278131 0.0
84.13336777275012 -0.9416079442426827 0.0
86.1356004574554 -0.9332058222966948 0.0
88.13776842945194 -0.9246443555941196 0.0
90.13987042906072 -0.9159260073069857 0.0
92.14190521689244 -0.907053261530707 0.0
94.14387157422804 -0.898028618765723 0.0
96.14576830329494 -0.8888545909927947 0.0
98.14759422741999 -0.8795336963060887 0.0
100.14934819103775 -0.8700684530640654 0.0
102.15102905953066 -0.8604613735134914 0.0
104.15263571887432 -0.8507149568361774 0.0
106.15416707505837 -0.8408316815615191 0.0
108.15562205324966 -0.8308139972799223 0.0
110.15699959665993 -0.8206643155829105 0.0
112.1582986650775 -0.8103850001444302 0.0
114.15951823301303 -0.7999783558444633 0.0
116.16065728740718 -0.7894466168198452 0.0
118.16171482483742 -0.7787919333076807 0.0
120.16268984815312 -0.7680163571230836 0.0
122.16358136245799 -0.7571218255842695 0.0
124.16438837034298 -0.7461101436630231 0.0
126.16510986625903 -0.7349829640957857 0.0
128.16574482990376 -0.7237417651380662 0.0
130.16629221844772 -0.7123878255803061 0.0
132.1667509574221 -0.7009221965631827 0.0
134.16711993007627 -0.6893456696307005 0.0
136.16739796487283 -0.6776587403357335 0.0
138.16758382082102 -0.6658615665561857 0.0
140.1676761702252 -0.6539539204831919 0.0
142.16767357833695 -0.6419351329923627 0.0
144.16757447926287 -0.6298040287886826 0.0
146.1673771473188 -0.617558850302512 0.0
148.16707966279307 -0.6051971677771266 0.0
150.16667987079254 -0.5927157722839387 0.0
152.16617533145654 -0.5801105474690282 0.0
154.165563259297 -0.5673763145870686 0.0
156.16484044871245 -0.5545066436907493 0.0
158.16400318174712 -0.5414936215317285 0.0
160.16304711280438 -0.5283275635197912 0.0
162.1619671231048 -0.5149966525667128 0.0
164.16075713493834 -0.5014864811727734 0.0
166.15940987176188 -0.4877794636941639 0.0
168.1579165442828 -0.47385407174534444 0.0
170.15626643371746 -0.4596838244836527 0.0
172.1544463295818 -0.44523593258368643 0.0
174.1524397573903 -0.43046944219976957 0.0
176.15022589577973 -0.41533263874721826 0.0
178.1477780216932 -0.3997593240642856 0.0
180.1450612166631 -0.38366331707521695 0.0
182.1420288654448 -0.36693006441392967 0.0
184.13861712592316 -0.34940320272206904 0.0
186.13473558958498 -0.330862485736542 0.0
188.13025137780681 -0.3109819636923877 0.0
190.12495425174185 -0.28926286480611435 0.0
192.11850006218015 -0.2648081651496526 0.0
194.11011575439474 -0.23624807775393547 0.0
196.09825357265004 -0.19853481305257126 0.0
198.07339022564182 -0.15154769563762252 0.0
200.05801025935892 1.8933786178716734 0.0
200.06199796191402 3.8465838717163563 0.0
200.06548482227817 5.820255544946067 0.0
200.06436771587485 7.8014523281255785 0.0
200.06146284222405 9.786863865131776 0.0
200.05731742396236 11.774902116311512 0.0
200.05236202690955 13.764772368606298 0.0
200.04682181848537 15.755994634612872 0.0
200.04084468027233 17.74826081825939 0.0
200.03452902131457 19.741360403322254 0.0
200.02794393722183 21.735143553978027 0.0
200.02113926928953 23.72949993997198 0.0
200.01415179574477 25.724346071918358 0.0
200.0070090683848 27.71961729501582 0.0
199.99973193066674 29.715262533265108 0.0
199.99233622483706 31.711240721072922 0.0
199.9848339871227 33.70751831175175 0.0
199.97723430714458 35.70406749504759 0.0
199.9695439608914 37.70086489457884 0.0
199.96176788708675 39.69789059785066 0.0
199.95390955292135 41.695127421662434 0.0
199.9459712401945 43.69256034721152 0.0
199.93795427333052 45.690176079561056 0.0
199.92985920443763 47.68796269959938 0.0
199.9216859663537 49.68590938570287 0.0
199.91343400173872 51.68400618856383 0.0
199.90510237427753 53.682243847021596 0.0
199.89668986665802 55.68061363585054 0.0
199.88819506900802 57.67910723871513 0.0
199.8796164607829 59.677716641164174 0.0
199.87095248861885 61.67643403978643 0.0
199.86220164234805 63.67525176461534 0.0
199.85336253117566 65.67416221263635 0.0
199.84443396192438 67.67315779086182 0.0
199.8354150212392 69.67223086813594 0.0
199.8263051637108 71.67137373520298 0.0
199.81710430800788 73.6705785733291 0.0
199.80781294330285 75.6698374324183 0.0
199.7984322485171 77.66914222049768 0.0
199.78896422717136 79.66848470772584 0.0
199.7794118608277 81.66785654995276 0.0
199.7697792840802 83.66724933973306 0.0
199.76007198338138 85.66665469729729 0.0
199.75029701969282 87.66606442168799 0.0
199.74046326848332 89.66547073580105 0.0
199.73058165308603 91.66486668408814 0.0
199.72066529737316 93.66424679018941 0.0
199.71072936549308 95.66360817161464 0.0
199.70078981211307 97.66295240052936 0.0
197.69063586699835 99.65235970799921 0.0
195.69040497210815 99.64243927970145 0.0
193.69015695344547 99.63251517023942 0.0
191.68989034177548 99.62257135505175 0.0
189.68960822828652 99.61259264261444 0.0
187.68931640408493 99.60256600146171 0.0
185.68902222234124 99.5924807918237 0.0
183.68873390240668 99.5823286719683 0.0
181.68846008495655 99.57210341008626 0.0
179.68820953512912 99.56180067634556 0.0
177.6879909377671 99.55141784050144 0.0
175.68781275291087 99.54095378324408 0.0
173.68768311252265 99.53040872309155 0.0
171.68760974659014 99.5197840583257 0.0
169.687599930934 99.50908222274195 0.0
167.68766045156727 99.49830655387987 0.0
165.6877975820156 99.4874611725239 0.0
163.68801707100283 99.47655087244961 0.0
161.6883241385484 99.46558101957083 0.0
159.68872347895214 99.45455745979532 0.0
157.6892192694329 99.44348643501388 0.0
155.689815183389 99.43237450673324 0.0
153.69051440740284 99.4212284869206 0.0
151.69131966121836 99.4100553756652 0.0
149.69223322001915 99.39886230528302 0.0
147.69325693840796 99.38765649050167 0.0
145.69439227555932 99.37644518436583 0.0
143.69564032107849 99.36523563950439 0.0
141.69700182115815 99.35403507439868 0.0
139.69847720468098 99.34285064429125 0.0
137.70006660896345 99.33168941637564 0.0
135.7017699048892 99.32055834891112 0.0
133.70358672122146 99.30946427391248 0.0
131.70551646792845 99.2984138830746 0.0
129.7075583583911 99.28741371660234 0.0
127.70971143039853 99.27647015463118 0.0
125.71197456585925 99.2655894109392 0.0
123.71434650922505 99.25477752866944 0.0
121.71682588455553 99.24404037779935 0.0
119.71941121126267 99.2333836541142 0.0
117.72210091856513 99.22281287946069 0.0
115.72489335867134 99.21233340307677 0.0
113.72778681874198 99.20195040381286 0.0
111.73077953168827 99.19166889307861 0.0
109.73386968586503 99.18149371836742 0.0
107.73705543372479 99.17142956722749 0.0
105.74033489950037 99.16148097156497 0.0
103.74370618598469 99.15165231217892 0.0
101.74716738047664 99.14194782344208 0.0
99.7507165599607 99.1323715980535 0.0
97.75435179558626 99.12292759180106 0.0
95.75807115651038 99.11361962828163 0.0
93.7618727131644 99.1044514035361 0.0
91.76575454000209 99.0954264905647 0.0
89.76971471778334 99.086548343695 0.0
87.77375133544356 99.07782030278136 0.0
85.7778624915966 99.06924559722036 0.0
83.78204629571302 99.06082734977085 0.0
81.78630086901528 99.0525685801719 0.0
79.79062434512457 99.04447220855496 0.0
77.79501487049356 99.03654105864955 0.0
75.79947060465416 99.02877786078407 0.0
73.8039897203082 99.02118525468558 0.0
71.80857040327926 99.01376579208323 0.0
69.81321085236486 99.00652193912232 0.0
67.81790927909962 98.99945607859594 0.0
65.82266390741346 98.99257051200208 0.0
63.82747297325629 98.98586746143518 0.0
61.83233472416879 98.97934907132063 0.0
59.837247418816816 98.97301741000103 0.0
57.8422093265005 98.96687447118369 0.0
55.84721872664589 98.96092217525774 0.0
53.85227390828698 98.95516237048992 0.0
51.85737316954432 98.94959683410758 0.0
49.86251481710483 98.94422727327702 0.0
47.86769716570814 98.93905532598512 0.0
45.87291853764228 98.9340825618319 0.0
43.878177262251654 98.92931048274127 0.0
41.88347167545989 98.92474052359667 0.0
39.888800119309124 98.92037405280817 0.0
37.89416094151665 98.91621237281706 0.0
35.89955249505035 98.91225672054351 0.0
33.90497313772304 98.90850826778284 0.0
31.91042123180581 98.904968121555 0.0
29.915895143660563 98.9016373244121 0.0
27.921393243391496 98.89851685470808 0.0
25.92691390451473 98.89560762683433 0.0
23.932455503645507 98.89291049142506 0.0
21.938016420202448 98.89042623553529 0.0
[...]
POINT_DATA 5151
SCALARS DISPL_X float 1
LOOKUP_TABLE default
0.0
0.0
-0.3091424850397648
0.0
0.003637881178607528
0.007274168138119739
0.010907266836171495
0.01453558358520162
0.018157525233219216
0.0217714993486023
0.025375914410271164
0.028969180004580507
0.032549707030265204
0.03611590791277823
0.03966619682933678
0.043198989945999584
0.046712705668075644
0.05020576490515021
0.05367659135198702
0.05712361178653014
0.0605452563862188
0.06393995906374648
0.06730615782335957
0.07064229513871778
0.07394681835325383
0.07721818010387821
0.08045483876875165
0.08365525893972184
0.08681791191986007
0.08994127624635262
0.0930238382388036
0.09606409257276033
0.09906054287801436
0.10201170236092275
0.104916094449666
0.10777225346096661
0.11057872528636453
0.11333406809568938
0.11603685305485736
0.11868566505447825
0.1212791034451832
0.12381578277484724
0.12629433352210873
0.12871340281973084
0.13107165516042335
0.13336777307670336
0.13560045778526464
0.13776842978508377
0.13987042939713798
0.14190521723213753
0.1438715745710274
0.14576830364122176
0.14759422776953549
0.14934819139055946
0.15102905988675047
0.15263571923372163
0.15416707542107716
0.1556220536155545
0.15699959702912797
0.158298665449996
0.15951823338884322
0.16065728778628374
0.16171482521972358
0.16268984853871632
0.16358136284687802
0.16438837073508844
0.16510986665443383
0.16574483029736736
0.16629221883082518
0.16675095779431404
0.16711993043747642
0.16739796522312433
0.16758382116030857
0.1676761705536161
0.16767357865434782
0.16757447956935828
0.1673771476144258
0.16707966307766528
0.1666798710661349
0.16617533171925308
0.1655632595487694
0.16484044895324929
0.1640031819770357
0.16304711302329405
0.161967123312783
0.1607571351353265
0.1594098719479889
0.15791654445790898
0.15626643388166075
0.15444632973499267
0.15243975753261566
0.1502258959111087
0.14777802181359945
0.14506121677259243
0.14202886554330574
0.13861712601074955
0.1347355896616993
0.13025137787251398
0.12495425179657577
0.11850006222395787
0.11011575442764178
0.09825357267193693
0.07339022565273573
0.0580102593589348
0.06199796191401816
0.0654848222781668
0.06436771587486564
0.06146284222404595
0.05731742396235179
0.05236202690953485
0.04682181848536662
0.04084468027232511
0.03452902131457529
0.02794393722182632
0.021139269289541854
0.014151795744772641
0.007009068384792662
-0.000268069333268111
-0.007663775162941679
-0.015166012877291083
-0.022765692855409473
-0.0304560391086037
-0.03823211291323539
-0.04609044707864762
-0.05402875980549432
-0.062045726669478475
-0.07014079556236683
-0.07831403364630693
-0.08656599826127231
-0.09489762572247303
-0.10331013334198724
-0.1118049309919904
-0.12038353921711349
-0.1290475113811322
-0.13779835765194687
-0.1466374688243397
-0.15556603807561215
-0.1645849787607962
-0.1736948362892017
-0.18289569199211309
-0.19218705669715563
-0.2015677514829192
-0.21103577282864516
-0.22058813917230494
-0.23022071591982254
-0.2399280166186145
-0.24970298030718716
-0.2595367315166634
-0.2694183469139762
-0.27933470262685167
-0.2892706345069171
-0.2992101878869398
-0.3093641330158622
-0.3095950279202381
-0.3098430465971511
-0.3101096582813043
-0.3103917717845973
-0.31068359600036655
-0.31097777775827806
-0.3112660977070051
-0.31153991517136514
-0.31179046501299723
-0.31200906238920445
-0.31218724725971914
-0.31231688766215465
-0.31239025360887773
-0.3124000692791809
-0.31233954866013647
-0.31220241822599804
-0.31198292925295706
-0.31167586172161016
-0.3112765213320394
-0.31078073086562946
-0.3101848169236955
-0.30948559292405714
-0.3086803391227372
-0.30776678033616633
-0.3067430619615473
-0.30560772482437526
-0.30435967931951663
-0.3029981792540497
-0.3015227957454324
-0.29993339147713155
-0.29823009556560076
-0.2964132792475302
-0.29448353255476056
-0.29244164210630663
-0.2902885701126662
-0.2880254346570375
-0.28565349129123874
-0.2831741159607587
-0.2805887892536265
-0.2778990819511601
-0.27510664184505196
-0.2722131817744239
-0.2692204688281211
-0.2661303146513582
-0.26294456679160494
-0.2596651010160329
-0.2562938145317078
-0.2528326200397486
-0.24928344055570043
-0.2456482049301496
-0.2419288440060438
-0.23812728735202893
-0.23424546051432676
-0.2302852827331091
-0.22624866507286656
-0.2221375089198741
-0.2179537048034445
-0.21369913150118441
-0.20937565539188058
-0.20498513002292634
-0.2005293958623323
-0.19601028020830275
-0.19142959723212444
-0.18678914813274752
-0.1820907213837749
-0.17733609305572318
-0.17252702719865748
-0.16766527627195305
-0.16275258160970058
-0.15779067391180668
-0.15278127375220915
-0.1477260920968712
-0.1426268308253359
-0.13748518325061404
-0.1323028346330648
-0.12708146268471054
-0.12182273806112637
-0.11652832483865287
-0.11119988097520975
-0.10583905875346725
-0.10044750520552699
-0.09502686251862658
-0.08957876842167839
-0.08410485655271556
-0.07860675680754556
-0.07308609567009963
-0.06754449652511368
-0.061983579953933096
-0.0564049640143303
-0.0508102645053186
-0.045201095218026996
-0.03957906817375946
-0.03394579385041299
-0.028302881398474058
-0.022651938847837238
-0.01699457330671781
-0.011332391153957289
-0.005666998226018837
0.0
0.0
0.0
0.0
0.0
0.0
0.0
0.0
0.0
0.0
0.0
0.0
0.0
0.0
0.0
0.0
0.0
0.0
0.0
0.0
0.0
0.0
0.0
0.0
0.0
0.0
0.0
0.0
0.0
0.0
0.0
0.0
0.0
0.0
0.0
0.0
0.0
0.0
0.0
0.0
0.0
0.0
0.0
0.0
0.0
0.0
0.0
0.0
0.0
0.003422791779687266
0.0032112653198767627
0.0030031506839305793
0.002798297340089997
0.002596555301986507
0.0023977750863009243
0.002201807666970904
0.002008504426713313
0.0018177171066001327
0.001629297754396486
0.0014430986723288305
0.0012589723649208448
0.0010767714874900703
0.0008963487958613579
0.0007175570978097774
0.0005402492067021292
0.0003642778977693839
0.00018949586739467535
1.575569576463383e-05
-0.00015709018681413358
-0.0003291895296632043
-0.0005006902873220629
-0.0006717406407877092
-0.00084248901425613
-0.0010130840872462168
-0.0011836748020242391
-0.0013544103662803625
-0.0015254402510438657
-0.0016969141838546547
-0.0018689821372415809
-0.0020417943125857823
-0.0022155011194891962
-0.002390253150791229
-0.0025662011534202727
-0.002743495995284741
-0.002922288628462376
-0.003102730048968842
-0.0032849712534332295
-0.0034691631930369024
-0.0036554567251220484
-0.0038440025629116036
-0.004034951223825935
-0.0042284529769268785
-0.00442465779005907
-0.004623715277307936
-0.004825774647433429
-0.005030984653982554
-0.005239493547827446
-0.005451449032910527
0.006844054392375863
0.00642106613186417
0.006004901148127729
0.005595258403388707
0.005191837953760128
0.004794340863986219
0.004402469115296698
0.004015925507914091
0.003634413559693731
0.0032576374023128582
0.0028853016763512917
0.0025171114265361665
0.0021527719983405755
0.0017919889370454631
0.0014344678902928113
0.001079914515068818
0.0007280343899777098
0.0003785329335790215
3.111532948097604e-05
-0.0003145135412101114
-0.000658649159535128
-0.0010015874199918798
-0.0013436246731142207
-0.0016850577590293721
-0.0020261840317613174
-0.0023673013741056766
-0.0027087082029915925
-0.0030507034652981126
-0.0033935866241592916
-0.003737657635862116
-0.004083216917496037
-0.004430565305585745
-0.004780004006003832
-0.005131834535523224
-0.005486358655428862
-0.005843878297698879
-0.006204695484321388
-0.0065691122403911855
-0.006937430501709468
-0.007309952017690914
-0.00768697825046201
-0.008068810271122022
-0.008455748654222462
-0.008848093371612424
-0.009246143686879994
-0.009650198051711413
-0.010060554005581639
-0.010477508080258028
-0.010901355710694564
0.010262258839638064
0.00962793808574203
0.00900385131726719
0.008389547042272644
0.007784575417419696
0.007188488118632625
0.00660083820147827
0.006021179953581113
0.005449068741300996
0.004884060852800197
0.004325713339523562
0.00377358385799817
0.0032272305137424897
0.00268621170894972
0.0021500859954860134
0.001618411934613833
0.0010907479647287762
0.0005666522782681084
4.568270882623077e-05
-0.00047260337062121193
-0.0009886491375698432
-0.0015028983972615062
-0.002015795646809311
-0.0025277861257234895
-0.003039315852491382
-0.003550831646966373
-0.004062781138426818
-0.004575612759263859
-0.005089775724348127
-0.005605719996229245
-0.00612389623641328
-0.006644755743060003
-0.007168750375539781
-0.007696332466396176
-0.008227954721334436
-0.008764070108003922
-0.009305131734415654
-0.009851592717961377
-0.01040390604611589
-0.010962524430023483
-0.011527900152293918
-0.012100484910460708
-0.012680729657686119
-0.013269084442428324
-0.013865998248919443
-0.014471918840441144
-0.015087292607508957
-0.01571256442320634
-0.016348177508030012
0.013675876461366924
0.012830417147642253
0.011998601405697494
0.011179827368156191
0.010373495380245082
0.009579007824625353
0.008795768932609355
0.008023184584864718
0.007260662104584448
0.006507610045973008
0.0057634379807510105
0.005027556285230937
0.004299375930349189
0.0035783082768785146
0.002863764877875783
0.002155157290246135
0.0014518968971349963
0.0007533947426931651
5.906138058985452e-05
-0.0006316932625283141
-0.0013194600075512562
-0.0020048305265243918
-0.002688397428616463
-0.0033707543278371967
-0.004052495892050839
-0.004734217872963028
-0.005416517116897994
-0.006099991556309348
-0.006785240182100434
-0.007472862996952656
-0.008163460949992355
-0.00885763585324882
-0.009555990280487323
-0.010259127449143115
-0.010967651086176231
-0.0116821652788687
-0.012403274311678997
-0.013131582490435367
-0.013867693955306322
-0.014612212484142007
-0.015365741287948483
-0.016128882800427156
-0.01690223846368726
-0.017686408512417363
-0.018481991758981353
-0.019289585382087235
-0.020109784721847518
-0.02094318308422953
-0.021790371558051986
0.017083379107880284
0.016027039760757165
0.014987752064407915
0.013964763882761164
0.01295732586867919
0.011964691240618086
0.010986115542420478
0.01002085639013934
0.00906817320963653
0.008127326968534802
0.007197579905915438
0.006278195262958133
0.0053684370175134475
0.00446756962539117
0.003574857770931426
0.0026895661292100736
0.0018109591420166584
0.0009383008095262491
7.085449938030848e-05
-0.0007921172253331865
-0.001651352757857597
-0.0025075915782262984
-0.0033615743614676444
-0.004214043062810329
-0.005065740979332354
-0.005917412787658085
-0.006769804557475367
-0.007623663740809
-0.008479739137146378
-0.00933878083466597
-0.01020154012797735
-0.011068769412938408
-0.011941222059276061
-0.012819652261909426
-0.013704814871996724
-0.01459746520897064
-0.015498358854948074
-0.016408251433109193
-0.01732789837182788
-0.018258054656540706
-0.019199474571546596
-0.02015291143414177
-0.02111911732372107
-0.0220988428086984
-0.023092836674328716
-0.024101845654737764
-0.025126614172697972
-0.026167884090902524
-0.027226394478704077
0.020483239315548962
0.019216343009073805
0.01796990453054472
0.016743021611475187
0.015534795363965797
0.014344330006247828
0.013170732568207884
0.012013112581606922
0.010870581759517706
0.009742253669293332
0.008627243403162985
0.0075246672502942025
0.006433642373928135
0.005353286496926384
0.004282717598811665
0.0032210536271244164
0.0021674122256503973
0.0011209104818198316
8.066469533002778e-05
-0.0009542098302403291
-0.0019845989712193287
-0.003011389941749306
-0.0040354714247144135
-0.005057733674799969
-0.006079068593021221
-0.0071003697722651
-0.008122532513574062
-0.009146453813102237
-0.010173032319862581
-0.011203168264566781
-0.012237763360048823
-0.013277720673943299
-0.01432394447448583
-0.01537734005050859
-0.016438813506839796
-0.017509271536617077
-0.018589621172161862
-0.019680769516313458
-0.02078362345634814
-0.02189908936284989
-0.02302807277615032
-0.0241714780832124
-0.025330208188102055
-0.02650516417946773
-0.02769724499872007
-0.02890734711288569
-0.03013636419638711
-0.03138518682626813
-0.032654702195646146
0.023873930487122816
0.022396864785139216
0.020943660780312574
0.01951326623948226
0.018104632919983293
0.016716716240508342
0.01534847492892873
0.013998870652621346
0.012666867636618482
0.011351432274649683
0.010051532737866235
0.008766138585758736
0.00749422038347849
0.006234749329466521
0.004986696896984607
0.0037490344928390856
0.0025207331362668258
0.001300763160658782
8.809394049769396e-05
-0.0011183063544407353
-0.0023194709757657674
-0.003516434782559125
-0.004710234395589216
-0.005901908318650123
-0.007092497026262258
-0.008283043017210188
-0.00947459083361894
-0.010668187045495414
-0.011864880200874678
-0.013065720741928149
-0.01427176088760259
-0.015484054483570047
-0.016703656820489483
-0.017931624421817963
-0.01916901480257164
-0.020416886200776585
-0.021676297283512565
-0.022948306829741236
-0.02423397339238084
-0.02553435494236275
-0.026850508497704016
-0.028183489740933047
-0.029534352628519736
-0.03090414899628919
-0.03229392816512287
-0.03370473655158589
-0.03513761728845019
-0.03659360986040887
-0.03807374976058785
0.027253927077910897
0.025567143962843396
0.023907623686086014
0.02227416425133345
0.020665568283793685
0.019080642642167855
0.017518198004727703
0.015977048435888395
0.014456010939407465
0.012953905004041144
0.011469552147168783
0.010001775461559675
0.00854939917010954
0.007111248193016791
0.005686147731504159
0.0042729228718361495
0.0028703982130231214
0.0014773975212439394
9.274341368793114e-05
-0.0012847429258629217
-0.0026562419976177034
-0.004022936200865065
-0.005386010012130637
-0.006746650125276123
-0.008106045552693255
-0.00946538768700863
-0.010825870322976803
-0.012188689639485016
-0.013555044141840526
-0.014926134564746903
-0.016303163736619723
-0.017687336406126356
-0.019079859032079868
-0.020481939538085525
-0.021894787033519932
-0.023319611502808677
-0.02475762346514515
-0.026210033607133094
-0.027678052391131094
-0.02916288964239531
-0.030665754118463343
-0.03218785306456262
-0.03373039175919755
-0.03529457305444538
-0.036881596915872096
-0.03849265996737079
-0.040128955046615435
-0.041791670777202604
-0.043481991163931796
0.030621704788980263
0.02872572057620191
0.026860397178541523
0.02502438307461071
0.02321633201941509
0.021434902592604263
0.019678757718144452
0.01794656416268882
0.016236992019610562
0.014548714185307045
0.01288040583401696
0.011230743896999344
0.009598406551518866
0.007982072724676856
0.006380421616705118
0.004792132247928006
0.003215883033192209
0.0016503513871567752
9.421336344795262e-05
-0.001453856669735637
-0.0029951863152434064
-0.004531105391986558
-0.006062946137760384
-0.007592043368635622
-0.00911973459399788
-0.01064736008660031
-0.012176262907289176
-0.013707788884329037
-0.015243286547531435
-0.016784107017646828
-0.018331603851746665
-0.019887132845584535
-0.021452051794191983
-0.023027720212255093
-0.024615499016032428
-0.026216750168980875
-0.027832836293474758
-0.02946512025136646
-0.031114964696475407
-0.0327837316024489
-0.0344727817698247
-0.036183474316524154
-0.037917166156413204
-0.03967521147100276
-0.04145896117980823
-0.0432697624153259
-0.04510895800904309
-0.04697788599534629
-0.0488778791406286
0.03397574076851163
0.03187113600509812
0.02980058641460076
0.027762591228310037
0.025755655635295176
0.02377829026140368
0.021829010617230332
0.01990633652323963
0.018008791519855984
0.01613490226993114
0.014283197960570537
0.012452209710848455
0.010640469991485513
0.008846512062090046
0.007068869431090319
0.005306075343019548
0.003556662297345502
0.0018191616025896068
9.210296903603394e-05
-0.0016259858571336674
-0.0033365794157452677
-0.0050411548085772424
-0.006741191927630369
-0.00843817363438699
-0.010133585889067511
-0.011828917829217842
-0.013525661797270948
-0.01522531331702402
-0.016929371019268287
-0.018639336517088198
-0.020356714231635174
-0.022083011169459897
-0.023819736652779706
-0.025568402004372007
-0.027330520189013552
-0.029107605413832262
-0.03090117269017212
-0.03271273735997996
-0.03454381459008403
-0.03639591883814443
-0.038270563294474716
-0.040169259304384454
-0.04209351577615833
-0.04404483858027393
-0.04602472994596674
-0.04803468786176055
-0.05007620548710333
-0.05215077058276573
-0.054259864968173824
0.03731451382243786
0.03500193316892521
0.03272679795194591
0.03048745847654661
0.028282271715939555
0.026109600715037692
0.0239678139607698
0.021855284728291985
0.019770390411790826
0.01771151184810124
0.01567703264087541
0.013665338492527134
0.011674816550648644
0.009703854775071082
0.007750841331200536
0.005814164014732974
0.0038922097123350744
0.00198336390236384
8.601019921390926e-05
-0.0018014700556401018
-0.00368069815317527
-0.005553298324778394
-0.007420897996796595
-0.009285127990267511
-0.011147622664780643
-0.013010020005782011
-0.014873961654957904
-0.01674109288366598
-0.018613062509684523
-0.020491522757858885
-0.022378129065525477
-0.024274539833889976
-0.02618241612684812
-0.02810342131907671
-0.030039220695460684
-0.03199148100440622
-0.03396186996784197
-0.03595205575115223
-0.03796370639668217
-0.039998489224903386
-0.04205807020779534
-0.04414411331948764
-0.04625827986974258
-0.04840222782639262
-0.05057761113341993
-0.05278607903194958
-0.055029275392016325
-0.05730883806356084
-0.059626398255706675
0.04063650463548127
0.03811665672904558
0.03563763993084848
0.03319765598815317
0.030794914058112022
0.028427630028905738
0.026094025805775592
0.02379232857203579
0.021520770034660224
0.01927758566350544
0.017061013932673
0.01486929557193448
0.012700672835551586
0.010553388795222086
0.0084256866632841
0.006315809151721072
0.004221997871925324
0.002142492779615915
7.553166876503907e-05
-0.0019806502821857943
-0.004027820908908464
-0.0060677514022988484
-0.008102216590181038
-0.010132995158127352
-0.012161869808316426
-0.014190627355722674
-0.01622105876128819
-0.01825495910207272
-0.020294127478699908
-0.022340366860738002
-0.024395483870971874
-0.026461288509831597
-0.028539593821569613
-0.030632215504137937
-0.032740971464963145
-0.03486768132533331
-0.03701416587638369
-0.03918224649013047
-0.04137374448944667
-0.04359048048134695
-0.04583427365846364
-0.04810694107414416
-0.05041029689717526
-0.0527461516527481
-0.05511631145691787
-0.0575225772524624
-0.059966744054722874
-0.06245060021668141
-0.06497592672321362
0.043940196003676046
0.04121385330095781
0.03853172226400997
0.03589185650270138
0.03329231781199017
0.03073117540298879
0.02820650509739043
0.02571638849634405
0.02325891213430318
0.020832166627767754
0.01843424582820177
0.016063245987758032
0.013717264945778799
0.011394401343359643
0.00909275387260434
0.006810420566533794
0.004545498134967893
0.00229608135107881
6.026249271181925e-05
-0.0021638691580504006
-0.004378227754014797
-0.006584731258320126
-0.008785301754185872
-0.010981865687451756
-0.013176354040806908
-0.015370702439012422
-0.017566851184794438
-0.01976674522544173
-0.02197233405047791
-0.024185571521114283
-0.026408415632510368
-0.02864282821019475
-0.030890774542333143
-0.03315422294990008
-0.035435144297072264
-0.0377355114446981
-0.04005729864999068
-0.042402480916077394
-0.044773033295513985
-0.04717093015239099
-0.04959814438820824
-0.05205664663729558
-0.0545484044381931
-0.05707538138807692
-0.059639536288025506
-0.0622428222876544
-0.06488718603841162
-0.06757456686558916
-0.07030689596988263
0.047224073079443096
0.04429207167702716
0.041407656835081255
0.03856873450343892
0.03577321962760967
0.03301903528131914
0.030304111761285668
0.027626385656356965
0.02498379890249367
0.02237429783439307
0.019795832243834497
0.017246354454091235
0.0147238184190095
0.012226178854600945
0.009751390410255089
0.007297406885941871
0.004862180501067723
0.0024436612199581122
3.979613828466588e-05
-0.002351471065921552
-0.004732200613476924
-0.007104457035022467
-0.009470309509713039
-0.011831832130085285
-0.014191104092012135
-0.01655020980907166
-0.018911238951053785
-0.021276286406685906
-0.02364745217101613
-0.026026841158222826
-0.02841656294095483
-0.030818731417632406
-0.03323546440947974
-0.035668883189438075
-0.03812111194537461
-0.04059427718056313
-0.04309050705470496
-0.045611930669287246
-0.04816067730156598
-0.05073887559201694
-0.05334865269069794
-0.055992133368610905
-0.05867143910084914
-0.061388687129056665
-0.06414598951151043
-0.06694545216995869
-0.06978917394319356