# vtk DataFile Version 2.0
mesh vtk view
ASCII
DATASET UNSTRUCTURED_GRID
POINTS 5151 double
0.0 -2.409815134640495 0.0
200.0 0.0 0.0
199.33755181777192 99.27633010372678 0.0
0.0 97.59423848393679 0.0
2.007795459660533 -2.4095827092193742 0.0
4.015587503137423 -2.408885502872944 0.0
6.023372714625388 -2.4077237253449013 0.0
8.03114767907925 -2.4060977261841954 0.0
10.038908982602111 -2.4040079947086026 0.0
12.046653212840992 -2.40145515995244 0.0
14.05437695939422 -2.3984399905971614 0.0
16.06207681423233 -2.3949633948831845 0.0
18.06974937213768 -2.3910264205008724 0.0
20.077391231164817 -2.386630254458238 0.0
22.084998993122042 -2.381776222922505 0.0
24.092569264079238 -2.376465791032193 0.0
26.100098654903668 -2.3707005626759656 0.0
28.107583781830126 -2.3644822802339895 0.0
30.115021267062968 -2.3578128242770555 0.0
32.122407739412324 -2.3506942132181847 0.0
34.1297398349727 -2.3431286029108147 0.0
36.137014197842745 -2.3351182861871855 0.0
38.14422748088868 -2.3266656923297413 0.0
40.151376346554066 -2.3177733864679055 0.0
42.15845746771768 -2.308444068891683 0.0
44.165467528601496 -2.2986805742729217 0.0
46.17240322573012 -2.288485870784198 0.0
48.17926126894325 -2.277863059104475 0.0
50.186038382461746 -2.26681537129981 0.0
52.192731306008135 -2.25534616956634 0.0
54.19933679598158 -2.243458944821942 0.0
56.20585162668681 -2.2311573151316937 0.0
58.212272591616255 -2.2184450239512703 0.0
60.21859650478354 -2.2053259381712023 0.0
62.22482020210618 -2.191804045943523 0.0
64.23094054283695 -2.1778834542710888 0.0
66.23695441103087 -2.163568386338403 0.0
68.24285871704754 -2.1488631785611796 0.0
70.24865039909963 -2.1337722773300434 0.0
72.25432642480982 -2.1183002354224136 0.0
74.25988379278662 -2.1024517080542413 0.0
76.26531953420405 -2.0862314485414357 0.0
78.27063071437347 -2.069644303538383 0.0
80.27581443429368 -2.052695207818582 0.0
82.28086783216331 -2.0353891785595994 0.0
84.28578808483779 -2.017731309091463 0.0
86.29057240920999 -1.999726762064346 0.0
88.29521806349203 -1.981380761987399 0.0
90.29972234837174 -1.962698587086398 0.0
92.30408260801488 -1.9436855604229435 0.0
94.30829623088066 -1.9243470402122638 0.0
96.31236065031348 -1.9046884092702745 0.0
98.3162733448709 -1.8847150635130472 0.0
100.32003183834124 -1.8644323994229974 0.0
102.32363369940123 -1.843845800386053 0.0
104.32707654085571 -1.8229606217918088 0.0
106.33035801839675 -1.8017821747746838 0.0
108.3334758288103 -1.7803157084569765 0.0
110.33642770755036 -1.7585663905348081 0.0
112.33921142559178 -1.736539286023779 0.0
114.34182478545743 -1.7142393339524213 0.0
116.34426561630579 -1.6916713217568111 0.0
118.34653176794568 -1.668839857087887 0.0
120.34862110362593 -1.645749336692322 0.0
122.35053149142584 -1.6224039119662919 0.0
124.35226079404022 -1.598807450706478 0.0
126.35380685672123 -1.5749634944909694 0.0
128.35516749310077 -1.5508752110101418 0.0
130.3563404685401 -1.5265453405292275 0.0
132.3573234806156 -1.5019761354925343 0.0
134.3581141362905 -1.477169292065787 0.0
136.3587099251278 -1.4521258721480002 0.0
138.35910818786135 -1.4268462140489693 0.0
140.35930607942933 -1.4013298296068397 0.0
142.3593005253705 -1.3755752849836345 0.0
144.35908817019927 -1.349580061690034 0.0
146.35866531602102 -1.323340393505383 0.0
148.35802784916754 -1.2968510738081285 0.0
150.35717115201098 -1.270105226322726 0.0
152.35608999627854 -1.243094030290775 0.0
154.354778413067 -1.2158063884008614 0.0
156.35322953323046 -1.1882285221944628 0.0
158.35143538972088 -1.1603434747108468 0.0
160.3493866705453 -1.1321304932566953 0.0
162.34707240689082 -1.1035642555000988 0.0
164.344479575093 -1.0746138882273715 0.0
166.3415925825596 -1.0452417079160656 0.0
168.33839259509185 -1.0154015823114524 0.0
170.33485664386794 -0.9850367667506843 0.0
172.3309564207075 -0.9540769983936138 0.0
174.32665662314187 -0.9224345189995062 0.0
176.32191263396385 -0.8899985116011819 0.0
178.31666718948017 -0.8566271229948977 0.0
180.3108454644032 -0.8221356794468935 0.0
182.30434756892285 -0.7862787094584207 0.0
184.29703669850687 -0.7487211486901479 0.0
186.28871912062692 -0.7089910408640185 0.0
188.2791100953754 -0.6663899221979737 0.0
190.26775911093796 -0.6198489960131022 0.0
192.25392870472183 -0.5674460681778271 0.0
194.23596233088347 -0.5062458809012903 0.0
196.21054336998938 -0.42543174225550984 0.0
198.15726476924496 -0.3247450620806197 0.0
200.1243076986263 1.77152560973398 0.0
200.13285277553004 3.671251153696133 0.0
200.1403246191675 5.614833310626641 0.0
200.13793081973185 7.574540703162355 0.0
200.1317060904801 9.54327971104058 0.0
200.1228230513479 11.517647392147964 0.0
200.11220434337758 13.4959407899332 0.0
200.10033246818293 15.477131359959149 0.0
200.08752431486926 17.460558896356403 0.0
200.0739907599598 19.445772292931547 0.0
200.05987986547535 21.432450472920067 0.0
200.04529843419186 23.42035701434755 0.0
200.03032527659593 25.409313011387372 0.0
200.01501943225313 27.39917991803666 0.0
199.99942556571443 29.389848285725563 0.0
199.98357762465085 31.38123011675265 0.0
199.96750140097723 33.37325352535395 0.0
199.9512163724527 35.3658589181345 0.0
199.934737059053 37.35899620284808 0.0
199.91807404375734 39.35262270986286 0.0
199.90123475626004 41.34670161803469 0.0
199.88422408613107 43.341200744215044 0.0
199.86704487142254 45.336091599253514 0.0
199.8496982952235 47.331348642196545 0.0
199.83218421361505 49.326948683850624 0.0
199.81450143229728 51.3228704042707 0.0
199.79664794488042 53.31909395811252 0.0
199.7786211428386 55.31560064846402 0.0
199.76041800501716 57.31237265460618 0.0
199.74203527310618 59.309392802715024 0.0
199.723469618469 61.30664437119499 0.0
199.70471780503155 63.30411092440066 0.0
199.68577685251927 65.30177617014768 0.0
199.66664420412368 67.2996238377612 0.0
199.64731790265543 69.29763757476466 0.0
199.62779677938028 71.29580086132437 0.0
199.6080806600169 73.29409694301067 0.0
199.5881705927918 75.29250878390363 0.0
199.56806910396517 77.2910190440612 0.0
199.54778048679577 79.28961008810901 0.0
199.52731113034505 81.28826403572563 0.0
199.50666989445753 83.28696287095663 0.0
199.48586853581725 85.28568863715319 0.0
199.46492218505603 87.28442376083504 0.0
199.44384986103572 89.28315157677908 0.0
199.4226749708986 91.28185718023892 0.0
199.4014256372282 93.28052883615769 0.0
199.38013435462804 95.27916036777069 0.0
199.35883531167084 97.277755144004 0.0
197.33707685783736 99.25505651714117 0.0
195.33658208305644 99.23379845650311 0.0
193.33605061447727 99.21253250765588 0.0
191.3354793037397 99.19122433225374 0.0
189.33487477481842 99.16984137703095 0.0
187.33424943722736 99.14835571741796 0.0
185.33361904776035 99.12674455390793 0.0
183.33300121931296 99.10499001136066 0.0
181.33241446761784 99.08307873589911 0.0
179.33187757511425 99.0610014493119 0.0
177.33140915217942 99.03875251536023 0.0
175.3310273274712 99.01632953552304 0.0
173.33074952662304 98.99373297805332 0.0
171.33059231389427 98.97096583926934 0.0
169.33057128032922 98.94803333444705 0.0
167.33070096738425 98.92494261545686 0.0
165.33099481832875 98.9017025125512 0.0
163.3314651518566 98.8783232981063 0.0
161.3321231537237 98.85481647050894 0.0
159.3329788831441 98.83119455670426 0.0
157.33404129130074 98.8074709321726 0.0
155.3353182497619 98.7836596572855 0.0
153.33681658691822 98.75977532911556 0.0
151.33854213079238 98.73583294785398 0.0
149.3404997567778 98.71184779703503 0.0
147.34269343902335 98.68783533678928 0.0
145.34512630433147 98.66381110935535 0.0
143.34780068757044 98.63979065608085 0.0
141.35071818772494 98.61578944514002 0.0
139.35387972382907 98.59182280919552 0.0
137.35728559013245 98.56790589223353 0.0
135.3609355099571 98.54405360480953 0.0
133.3648286877957 98.52028058695532 0.0
131.3689638592944 98.49660117801699 0.0
129.37333933884105 98.47302939271931 0.0
127.37795306455548 98.4495789027811 0.0
125.38280264053692 98.42626302344115 0.0
123.38788537632078 98.40309470429166 0.0
121.39319832345753 98.38008652385575 0.0
119.39873830925852 98.35725068738758 0.0
117.4045019677638 98.33459902741576 0.0
115.41048576799129 98.31214300659308 0.0
113.4166860395712 98.28989372245611 0.0
111.4230989958847 98.26786191373989 0.0
109.42972075483492 98.2460579679302 0.0
107.43654735739153 98.22449192977321 0.0
105.44357478405347 98.20317351049637 0.0
103.45079896937702 98.18211209752627 0.0
101.45821581471694 98.16131676451874 0.0
99.4658211993256 98.14079628154322 0.0
97.47361098995181 98.12055912528798 0.0
95.4815810490749 98.1006134891749 0.0
93.48972724190493 98.08096729329164 0.0
91.49804544227143 98.06162819406724 0.0
89.50653153751693 98.04260359363215 0.0
87.51518143250316 98.0239006488172 0.0
85.52399105283102 98.00552627975792 0.0
83.53295634736622 97.98748717808039 0.0
81.54207329015678 97.96978981465406 0.0
79.55133788181956 97.9524404469035 0.0
77.56074615046735 97.9354451256776 0.0
75.57029415224007 97.91880970168017 0.0
73.5799779714987 97.9025398314691 0.0
71.58979372072827 97.88664098303549 0.0
69.59973754021316 97.87111844097642 0.0
67.60980559751816 97.85597731127702 0.0
65.61999408677835 97.84122252571872 0.0
63.6302992278864 97.82685884593253 0.0
61.64071726557227 97.81289086711561 0.0
59.65124446840573 97.79932302143078 0.0
57.66187712774415 97.78615958110791 0.0
55.67261155664337 97.77340466126657 0.0
53.683444088747706 97.76106222247837 0.0
51.694371077172505 97.74913607308767 0.0
49.70538889338984 97.7376298713079 0.0
47.71649392612749 97.72654712711098 0.0
45.727682580288324 97.7158912039255 0.0
43.738951275896085 97.70566532015985 0.0
41.750296447072856 97.69587255056429 0.0
39.76171454105174 97.68651582744609 0.0
37.77320201722698 97.67759794175083 0.0
35.78475534624404 97.6691215440218 0.0
33.796371009130326 97.66108914524892 0.0
31.808045496466747 97.65350311761784 0.0
29.819775307600317 97.6463656951688 0.0
27.83155694989716 97.63967897437446 0.0
25.843386938034616 97.63344491464501 0.0
23.85526179333109 97.62766533876797 0.0
21.867178043112236 97.62234193328992 0.0
19.87913222011146 97.61747624884632 0.0
[...]
POINT_DATA 5151
SCALARS STRESS_EQV float 1
LOOKUP_TABLE default
794.3383533680599
20326.852289064773
149.79524771991902
1232.1978317771457
794.1627217359121
793.635846389255
792.7577861198074
791.5286393884103
789.9485450368034
788.0176832833606
785.7362770021491
783.1045932842417
780.122945279966
776.7916943199352
773.1112523121787
769.08208441223
764.7047119612168
759.9797156866819
754.9077391589738
749.4894924947512
743.7257562967893
737.6173858165955
731.1653153256545
724.3705626762662
717.234234030218
709.7575287305501
701.9417442869278
693.7882814405507
685.2986492694737
676.4744702902826
667.3174855049944
657.8295593361356
648.0126843853104
637.8689859428011
627.4007261672284
616.6103078448018
605.5002776286628
594.0733286472813
582.3323023601488
570.2801895272452
557.9201301457781
545.2554121949325
532.2894690154656
519.0258751366739
505.46834034928577
491.6207018089525
477.48691394098677
463.0710359050288
448.3772163698525
433.4096753427885
418.1726828020009
402.67053389518003
386.9075205032225
370.88789903585405
354.6158544456414
338.0954606521641
321.3306379140373
304.32510826935265
287.08235115457546
269.6055630128559
251.8976276886351
233.96110978841693
215.79829320877354
197.41130645373255
178.8024158769436
159.97465327033
140.93314217420533
121.68799027219535
102.26104958056013
82.70360612923628
63.15150026238082
44.05061315645181
27.483267322551068
21.491810837105398
31.17397828075768
49.95509320282398
71.2927023719829
93.77543575051125
117.12080115656747
141.2930289514072
166.34429542877956
192.37638820977858
219.53194793520746
247.99622714210767
278.00459042286093
309.85492939672463
343.92579964254384
380.7022851183016
420.8130380695882
465.0841423900456
514.6191320993032
570.9210287147109
636.0842215761681
713.1078842019904
806.4279734347148
922.884433377454
1073.5098678613028
1277.6203766843976
1570.1075862062453
2033.3810400137372
2827.632907828631
4771.646029117908
13268.793939228979
14779.502402208673
7484.937584121117
4984.34395529625
3773.718798379211
3021.8162259085834
2519.108638132664
2156.662868818854
1882.7941783967
1667.8750732106664
1494.1660058087787
1350.3236584126896
1228.7856388411983
1124.3227410232964
1033.2123154140218
952.7388049574668
880.8805454435343
816.1064427323779
757.2401183198294
703.3668066093803
653.7681224865473
607.8754524541448
565.236067284997
525.4880965849278
488.3417859324137
453.5652785385179
420.9737012818823
390.42069390289623
361.7917636159841
334.9990148914494
309.976920621762
286.6788822701303
265.07438307109464
245.14657616842294
226.89017209592876
210.30949820789002
195.41659536683318
182.2291913382027
170.76834169915452
161.0554536223545
153.10830323676606
146.93552133678287
142.52884435110082
139.85216860416722
138.8260163677807
139.30530208914973
141.04730668742982
143.6663764021362
146.57655608675918
148.9059858464239
150.2946126335786
151.6515290737728
153.34735889926486
154.82286061017675
155.76942182635895
155.97813667896366
155.32720994580077
153.77803293718287
151.37281619123684
148.23404535645642
144.56625610967245
140.6594137781292
136.89116960303124
133.7223410629042
131.67694318611842
131.29805414267133
133.0785977518202
137.3827615527452
144.38849740348724
154.07714052306474
166.2710280694647
180.69567986744727
197.0390364638136
214.99273813972
234.27415201171442
254.63453972330512
275.85941218575476
297.76536998319415
320.1958600104279
343.01700181527167
366.1139257576941
389.3877212847587
412.7529502521011
436.13563425955414
459.47162143779144
482.70525031122804
505.7882443239849
528.6787855723517
551.3407287129421
573.7429257525242
595.8586398120449
617.6650314560308
639.1427052262352
660.275306976894
681.0491647655513
701.4529676231155
721.4774776716024
741.1152718959436
760.3605104940644
779.2087291903719
797.6566532446041
815.7020311569232
833.3434862813318
850.5803847304253
867.4127180968355
883.8409996387329
899.8661726845955
915.4895301075995
930.712643808639
945.5373032284554
959.9654619843514
973.9991917991994
987.6406429575372
1000.8920105859345
1013.7555061148963
1026.2333333354363
1038.3276685155797
1050.0406440909815
1061.374335489997
1072.3307506953147
1082.9118221838485
1093.119400923208
1102.9552521356634
1112.421052571874
1121.5183890644607
1130.2487581569294
1138.6135666268347
1146.6141327429027
1154.251688115522
1161.527380016394
1168.4422740588989
1174.9973571448395
1181.1935405950217
1187.0316633925722
1192.5124954775129
1197.636741039494
1202.4050417637645
1206.8179799916907
1210.876081762838
1214.5798197115932
1217.9296157946628
1220.9258438303693
1223.5688318337936
1225.8588641341844
1227.796183264288
1229.3809916127684
1230.6134528325874
1231.4936930001131
1232.0218015206249
1208.3031115582276
1160.9295218400007
1114.3694886788994
1068.5867497440277
1023.5451062535657
979.2084410868624
935.5407385107693
892.5061058527606
850.0687976722986
808.1932432869978
766.8440789449651
725.9861865666494
685.5847419197718
645.6052765220974
606.0137597989533
566.7767115956453
527.8613610280469
489.2358776459617
450.86971844820494
412.7341663975898
374.8031974747702
337.05493695392045
299.47423034628883
262.0574645531406
224.82231211189668
187.8294014959638
151.23696947815912
115.4642827658628
81.80395300665573
55.09524132051911
47.57910733664286
64.61342602553519
95.84852646552653
131.73631028409417
169.44499157892648
208.1687335317491
247.62616448203926
287.708592729188
328.3767080432937
369.6233840300165
411.4581094483488
453.899699786386
496.9725793250102
540.7047521044774
585.1266329645543
630.2703436768247
676.1692733397058
722.8577952155892
770.3710793689411
770.1993379474287
722.6940712024216
676.0140637090045
630.1241979426953
584.9901685732518
540.5786755423023
496.8577157623082
453.79703581467396
411.3688565372164
369.5490759978096
328.3193568433462
287.67094953759164
247.6121831958318
208.18445398991526
169.50037613249853
131.84947449102984
96.05626347283724
64.98820926719742
48.12628952489713
55.62633718450006
82.18810729021924
115.74357463198606
151.45152508800703
187.99978005140966
224.95959040948748
262.1681555179647
299.5624558862746
337.12346419409846
374.8539759549542
412.7686272458955
450.88895118239924
489.2407399208232
527.8525496112914
566.7548098782792
605.9792705351201
645.5586449481777
685.526372414507
725.9164548554934
766.7633411536061
808.1018427151143
849.9670698818339
892.3943824842706
935.4193501209087
979.0777192182568
1023.4053848915385
1068.4383662751425
1114.212784438192
1160.7648423133296
1208.130806291687
769.6841332380163
722.2029192028918
675.5484564069402
629.6857851982797
584.5808043367695
540.2004812239733
496.5131692114213
453.4890995657629
411.10116816600686
369.32624037021344
328.1474128954536
287.5581517880547
247.5703870158909
208.23174880248035
169.66653724857423
132.18841477887412
96.67636938690538
66.09702817950199
49.73157327336463
57.18744712001712
83.32869258987702
116.57713805556222
152.09329322464143
188.50996872696928
225.37092322880724
262.4999600290997
299.82699685710907
337.32898956076974
375.00630374880683
412.8720322353107
450.94669002504116
489.25537768013965
527.8261711835778
566.6891616560367
605.8758581037968
645.4188021168974
685.3513109859636
725.7073010997279
766.5211628739908
807.8276695037058
849.6619083371227
892.0592276258119
935.055193875966
978.6855566111767
1022.986218397811
1067.993208683745
1113.7426604814968
1160.2707892636745
1207.6138736800103
768.8255240416045
721.3843994621946
674.7725163264607
628.9551789478783
583.8986272173746
539.5702754375909
495.9390723161288
452.97605833334393
410.6552557886296
368.9551429898633
327.8612056235464
287.37059535661075
247.50121910246764
208.311017899072
169.94349767456532
132.75149415429672
97.69980053401349
67.89674778960092
52.2973000471328
59.691600611407296
85.19199552802763
117.95238543731382
153.15666553604228
189.35715413836743
226.05481416387835
263.0520765987628
300.267447645958
337.6713444211786
375.26015801004957
413.04444869536394
451.0430568916299
489.2799437579875
527.7823932847988
566.5799378289042
605.7036887248581
645.1859038571143
685.0596990609635
725.3588495958584
766.1176495431034
807.3708093024846
849.153378633228
891.5006871074634
934.4482966098692
978.0319622910133
1022.2875995472178
1067.2512553820015
1112.9590830411291
1159.4473191898187
1206.7522631690113
767.6236088114374
720.2386128064034
673.6863520319605
627.9325021336276
582.9437826529845
538.6882359432004
495.13564692531565
452.2581919265421
410.0314730562299
368.43622838296625
327.46128563016305
287.10894137118447
247.40541846704156
208.42292654772157
170.33129657568074
133.53604930450166
99.11233361806333
70.32528474916387
55.690711282724486
63.01963839984851
87.72751486042921
119.84943406153067
154.63257759796264
190.53673737338238
227.0088014689365
263.8231815054913
300.8831366500302
338.1502491426941
375.61550097210943
413.2859888273771
451.1782549574215
489.31469297583624
527.7214953875791
566.4274235968633
605.4630398946139
644.8602104077638
684.6517729012526
724.8713080497853
765.5529774017825
806.7314053183679
848.4415904794726
890.7188376099837
933.5987032465143
977.1169513983175
1021.3095162911161
1066.212470279109
1111.8619956256266
1158.294359283005
1205.5458901088077
766.0785263302591
718.7657012680424
672.2901163735637
626.6179277890371
581.7164753111153
537.5546128976426
494.1032052645431
451.33589415997926
409.23031767220914
367.7701219556727
326.9484270504387
286.7741182137418
247.28402057758717
208.5684034335115
170.82999135050082
134.53848249672222
100.89566414584621
73.3117029480157
59.771212504302056
67.04374555379223
90.8744528357955
122.24254077703824
156.5089014686224
192.04246267606496
228.22950491596146
264.8114465319315
301.6731328002986
338.76531519912845
376.07228040525496
413.5968096762996
451.35256862479105
489.3599822827202
527.6438692501727
566.2320190044614
605.1543010763096
644.4420872012395
684.1278644276217
724.2449683942176
764.8273942643946
805.909659003345
847.526698278177
889.7137871135784
932.5064771039797
975.9405453393665
1020.0519517502692
1064.8768026173925
1110.4513187042212
1156.8118069688576
1203.9946351661101
764.1904566575904
716.9658489613132
670.5840073473714
625.0116799562354
580.2169701499074
536.169730159239
492.8421515917734
450.20967496147466
408.25243401586454
366.9576330968558
326.32363086853144
286.3673243247007
247.13835818367784
208.7486379702409
171.43966005029063
135.75437985363172
103.02865445258135
76.78455472497471
64.40900001501606
71.64379064108716
94.56792212439989
125.10175927286465
158.7709381102248
193.86658559479346
229.7126884474822
266.01456302159045
302.6362544899216
339.5160480665356
376.63043023928225
413.9771130789523
451.5663634639612
489.41627093685014
527.5500193964975
565.9942396912883
604.7779746577567
643.9320059539997
683.4884023703223
723.4802079323541
763.941220597998
804.9058310208115
846.4089019395211
888.4856755319205
931.1717003266226
974.5027720031048
1018.5148842109214
1063.244186748421
1108.7269492700666
1154.9995292704405
1202.0983435048697
761.9596223461831
714.8392832061741
668.5682692021217
623.1140348693743
578.4455937918915
534.5339869825953
491.3529843531183
448.8801631192781
407.0986165615569
365.99975921485037
325.5881292164296
285.89003181003955
246.97006233932086
208.96507684836925
172.16040428956822
137.17864739903143
105.48855394007883
80.6771897454287
69.49360510273394
76.71524241900119
98.74378843518998
128.39459630330177
161.40196517960152
196.00007030952816
231.45333596414494
267.4297715309455
303.77108071199933
340.4018508566583
377.28987133453126
414.4271455763714
451.82008611338335
489.48412071410587
527.4405637093777
565.7147178361464
604.3346771665088
643.330546058085
682.7339137427238
722.5774908073786
762.8948509126338
803.7202424939065
845.0884479374756
887.0346755369216
929.5944744510193
972.8036660509457
1016.6982871304929
1061.3145418552294
1106.6887602876577
1152.8573619968868
1199.8568237387817
759.3862899264794
712.3862759001569
666.2431937923338
620.9253224071964
576.402736218109
532.6478601172358
489.63629885987797
447.3481096981045
405.7698141288844
364.8976907450283
324.7433906819528
285.3439908514933
246.78106359456774
209.21941982335858
172.99235251622937
138.80565591596914
108.25206395889244
84.930310762694
74.93539749608041
82.17113365521519
103.34183923246658
132.08749700652407
164.3837970431761
198.43280502029035
233.44573719557098
269.0538962160726
305.0759641684318
341.4220286236141
378.0505123789892
414.94719827410603
452.1142641222563
489.5641961246256
527.3162341189641
565.3942032795618
603.8251407306823
642.6383962650921
681.8650256333347
721.5373697964967
761.6887554645941
802.3532765401994
843.5656306129464
885.3609935817393
927.7749211139928
970.8432692876263
1014.602129160711
1059.0877716279724
1104.3366000310102
1150.3851087631895
1197.2698466603338
756.4707716575629
709.6071451366508
663.6091221783188
618.4459278185572
574.0888527919891
530.5119063273999
487.69279051362787
445.61439216051616
404.26713500836877
363.6528171734653
323.7911266580819
284.7312349201021
246.5735933214578
209.513614751796
173.93566350015973
140.62938627237617
111.29618142522972
89.49266052553659
80.66354799104019
87.94090361736033
108.30748220714251
136.14706121340186
167.69732046240236
201.15382449538393
235.6835804245149
270.88338299910413
306.5490460772641
342.575793268573
378.91225088542865
415.53760663114434
452.4495057134925
489.6572646140663
527.1778773635849
565.0335648044954
603.2502147693474
641.8563566515093
680.8824673098578
720.3604884275386
760.3234822746272
800.8053800975886
841.8407937312153
883.4648711308657
925.7131829125314
968.6216311233014
1012.2263741983002
1056.5637639025051
1101.670291321348
1147.5825398490624
1194.3371437527207
753.2134275421455
706.5022570677579
660.666446473668
615.6762937259862
571.5044666249065
528.1267653542459
485.5232586120656
443.68001923857184
402.5918530171115
362.26673413173734
322.7332987715247
284.05408679099844
246.35018513277316
209.84985188601217
174.99052989646998
142.64356819467204
114.59880840708803
94.32067679299712
86.62279775263342
93.96803725481669
113.59237435481663
140.54095860101972
171.3229789753159
204.15152996086277
238.16004886075112
272.91434051208114
308.1882723807207
343.86226895721006
379.874974257669
416.19875015382945
452.8264994405417
489.76419672088105
527.0264557951771
564.6337915507303
602.6108678930544
640.9853408517916
679.7870726275695
719.0475834156257
758.7996594628365
799.0770660471044
839.9143323024355
881.3465861078945
923.4094244274692
966.1388091394351
1009.5709814757203
1053.7423902737626
1098.689630674942
1144.4493909058895
1191.0584054922717
749.6146676028242
703.072028009382
657.4156119405293
612.6169224132032
568.6501712976983
525.4931633459969
483.1286107752776
441.54613661021176
400.74541454953584
360.74125162781763
321.572127434775
283.3151653564858
246.11367634641599
210.23055744284315
176.1571817481764
144.8418072066908
118.13915005985173
99.3776873991498
92.77022221719966
100.20751132735502
119.15437447437776
145.23855797717653
175.24118933616688
207.4138981937104
240.86791766352428
275.14258281156276
309.9914110405385
345.2804979562786
380.9385608906265
416.93105196805664
453.24601370815407
489.88596615663545
526.8630481967872
564.1959945342677
601.9081899914681
640.0263785425026
678.5797827319967
717.5994874163632
757.1179979023927
797.1689156390107
837.7866946748857
879.0064545733055
920.8638334247871
963.3948697728624
1006.6359057062696
1050.6235056978235
1095.3943873740104
1140.9853615232014
1187.4332794511324
745.6749544161023
699.31692678578
653.8571193332116
609.2683784034559
565.526633955383
522.6119167874344
480.50986804021113
439.2140334446067
398.72944669975504
359.07840348854495
320.3101015709469
282.51739323186666
245.8672094427494
210.65838646790468
177.43588980868674
147.21769629608747
121.8979403037305
104.63297087552917
99.07245020376509
106.62348243966646
124.95712125768952
150.21131261921295
179.43268275310135
210.92867366827383
243.79964894951314
277.5636728919609
311.9560701012266
346.8294467906295
382.10288126580684
417.73497823933866
453.70889612235226
490.02364977111466
526.6888505741387
563.7214082374268
601.1433944799769
638.9806181569173
677.2616490428037
716.017132089625
755.2792941928517
795.0815812285889
835.458384911724
876.4448326460911
918.07662225026
960.3898891349538
1003.4210973008392
1047.206948099212
1091.7843024761673
1137.190113668759
1183.461368211948
741.3948058994159
695.2374773101412
649.991527490763
605.6312913373101
562.1345987959236
519.4839369660461
477.66817068021055
436.68514989279765
396.5457665451355
357.2804581003992
318.94998956610505
281.66400514433604
245.61423345612377
211.13621502369432
178.82696858641242
149.76491058556502
125.85753824392944
110.06084357309327
105.50343741204946
113.18735342378312
130.96943960363288
155.43295338306297
183.87877110271614
214.68353964049962
246.9474825542101
280.1729660949676
314.079716204861
348.5080126168469
383.36779899911977
418.61103740561146
454.21607262935686
490.1784273577907
526.505176876914
563.2113922293745
600.3178206720675
637.8493298055156
675.8338365035823
714.30155146707
753.2844339533457
792.8157893285294
832.9299654633814
873.662118684887
915.0480294357242
957.1239539853806
999.9265026759163
1043.4925380026323
1087.8590877802778
1133.0632700182705
1179.1422271089214
736.7747983454096
690.834261396511
645.8194561791423
601.7063591600743
558.4748909773116
516.1102350179734
474.6047848157549
433.9610856131378
394.1963916958156
355.3499305478437
317.49485150881924
280.75855709097755
245.3585052366402
211.6671317384084
180.33077904355918
152.47728472433135
130.0019342048903
115.63984084826295
112.04274595168543
119.87622016404964
137.1646983022113
160.87954014595633
188.56154347786617
218.66626593517168
250.30352079055402
282.9656526059721
316.3596932514475
350.3150297071642
384.733171794719
419.5597791847041
454.76854639986703
490.3515812506905
526.3134595999002
562.6674327712262
599.4329362390254
636.6339083731089
674.2976270779527
712.4538856137636
751.1343954352516
790.3723439845685
830.2020601480197
870.65875574592
911.778321537317
953.5971628824673
996.1520646755214
1039.480078211439
1083.6184247699553
1128.6044121943671
1174.4753618125408
731.8155696964296
686.1079217980745
641.341589183939
597.4943516310216
554.5484209725375
512.4919276062435
471.3211098950202
431.04360943520277
391.683552229939
353.28959626145473
315.9480527813843
279.8049362464814
245.1040905136726
212.25442876057963
181.94773091109874
155.34887379666384
134.31669687494227
121.35201221236194
118.6742378387402
126.67165032896719
143.5201874050775
166.529415321619
193.46400148512586
222.86483279642644
253.85980593044596
285.93679833942707
318.7932409161606
352.2492759369653
386.1988522560507
420.5817933146318
455.3673964092556
490.54449565646
526.1152502067391
562.0911443525907
598.4903397115197
635.3358767574656
672.6544234683507
710.4753845712298
748.8302534516515
787.7521304805858
827.2753574533934
867.4352343362151
908.2677952279657
949.8096275352385
992.0977231332778
1035.1693535588079
1079.061963559663
1123.8130789376771
1169.4602257782535
726.5178230507619
681.0591654653347
636.5586776543694
592.996114168815
550.3561894072338
508.6302432929717
467.818687137125
427.9346702842185
389.00970415264203
351.1025063012071
314.31327907068396
278.80737159417237
244.8553646892281
212.9015921764098
183.67828461737463
158.37399927594527
138.7888852503568
127.18232818933056
125.38509003893822
133.5587333789607
150.0165489634786
172.36309438707158
198.57014305934013
227.26753141420357
257.6083895921591
289.08138363681087
321.3775127572751
354.3094791687513
387.7646885011278
421.67770797992387
456.0137756588499
490.75865565954234
525.912219311827
561.4842710986032
597.4917629708438
633.9568892086406
670.9057530291045
708.3674125657873
746.373183618739
784.9561193786528
824.1506141742916
863.9920954830031
904.516779669727
945.7614743849508
987.7634156034197
1030.5601307606746
1074.1893218715452
1118.6887642367476
1164.0962175839493
720.8823303899183
675.6887670167423
631.4715437005284
588.212572050792
545.8992924208237