# vtk DataFile Version 2.0
mesh vtk view
ASCII
DATASET UNSTRUCTURED_GRID
POINTS 10 double
0.0 0.0 0.0
20.0 0.0 0.0
2.222222222220445 0.0 0.0
4.444444444436795 0.0 0.0
6.666666666652526 0.0 0.0
8.888888888871998 0.0 0.0
11.1111111110976 0.0 0.0
13.3333333333232 0.0 0.0
15.5555555555488 0.0 0.0
17.7777777777744 0.0 0.0

CELLS 9 27
2 0 2
2 2 3
2 3 4
2 4 5
2 5 6
2 6 7
2 7 8
2 8 9
2 9 1

CELL_TYPES 9
3
3
3
3
3
3
3
3
3

CELL_DATA 9
SCALARS CellEntityIds float 1
LOOKUP_TABLE default
1.0
1.0
1.0
1.0
1.0
1.0
1.0
1.0
1.0
