# vtk DataFile Version 2.0
mesh vtk view
ASCII
DATASET UNSTRUCTURED_GRID
POINTS 101 double
0.0 0.0 0.0
20.0 0.0 0.0
0.1999999999998517 0.0 0.0
0.399999999999712 0.0 0.0
0.5999999999995541 0.0 0.0
0.7999999999993355 0.0 0.0
0.999999999999102 0.0 0.0
1.199999999998936 0.0 0.0
1.399999999998797 0.0 0.0
1.599999999998657 0.0 0.0
1.799999999998517 0.0 0.0
1.999999999998378 0.0 0.0
2.199999999998238 0.0 0.0
2.399999999998067 0.0 0.0
2.599999999997705 0.0 0.0
2.799999999997153 0.0 0.0
2.999999999996569 0.0 0.0
3.199999999995984 0.0 0.0
3.3999999999954 0.0 0.0
3.599999999994816 0.0 0.0
3.799999999994232 0.0 0.0
3.999999999993648 0.0 0.0
4.199999999993064 0.0 0.0
4.399999999992479 0.0 0.0
4.599999999991895 0.0 0.0
4.799999999991311 0.0 0.0
4.999999999990727 0.0 0.0
5.199999999990144 0.0 0.0
5.399999999989559 0.0 0.0
5.599999999988975 0.0 0.0
5.799999999988391 0.0 0.0
5.999999999987806 0.0 0.0
6.199999999987222 0.0 0.0
6.399999999986638 0.0 0.0
6.599999999986053 0.0 0.0
6.79999999998547 0.0 0.0
6.999999999984885 0.0 0.0
7.199999999984302 0.0 0.0
7.399999999983717 0.0 0.0
7.599999999983132 0.0 0.0
7.799999999982549 0.0 0.0
7.999999999982034 0.0 0.0
8.199999999982062 0.0 0.0
8.399999999982366 0.0 0.0
8.59999999998267 0.0 0.0
8.799999999982973 0.0 0.0
8.999999999983277 0.0 0.0
9.19999999998358 0.0 0.0
9.399999999983885 0.0 0.0
9.599999999984188 0.0 0.0
9.799999999984493 0.0 0.0
9.999999999984798 0.0 0.0
10.1999999999851 0.0 0.0
10.39999999998541 0.0 0.0
10.59999999998571 0.0 0.0
10.79999999998601 0.0 0.0
10.99999999998632 0.0 0.0
11.19999999998662 0.0 0.0
11.39999999998693 0.0 0.0
11.59999999998723 0.0 0.0
11.79999999998754 0.0 0.0
11.99999999998784 0.0 0.0
12.19999999998814 0.0 0.0
12.39999999998845 0.0 0.0
12.59999999998875 0.0 0.0
12.79999999998905 0.0 0.0
12.99999999998936 0.0 0.0
13.19999999998966 0.0 0.0
13.39999999998997 0.0 0.0
13.59999999999027 0.0 0.0
13.79999999999057 0.0 0.0
13.99999999999088 0.0 0.0
14.19999999999118 0.0 0.0
14.39999999999149 0.0 0.0
14.59999999999179 0.0 0.0
14.7999999999921 0.0 0.0
14.9999999999924 0.0 0.0
15.1999999999927 0.0 0.0
15.39999999999301 0.0 0.0
15.59999999999331 0.0 0.0
15.79999999999361 0.0 0.0
15.99999999999392 0.0 0.0
16.19999999999422 0.0 0.0
16.39999999999453 0.0 0.0
16.59999999999483 0.0 0.0
16.79999999999514 0.0 0.0
16.99999999999544 0.0 0.0
17.19999999999574 0.0 0.0
17.39999999999605 0.0 0.0
17.59999999999635 0.0 0.0
17.79999999999665 0.0 0.0
17.99999999999696 0.0 0.0
18.19999999999726 0.0 0.0
18.39999999999756 0.0 0.0
18.59999999999787 0.0 0.0
18.79999999999817 0.0 0.0
18.99999999999848 0.0 0.0
19.19999999999878 0.0 0.0
19.39999999999909 0.0 0.0
19.59999999999939 0.0 0.0
19.7999999999997 0.0 0.0

CELLS 100 300
2 0 2
2 2 3
2 3 4
2 4 5
2 5 6
2 6 7
2 7 8
2 8 9
2 9 10
2 10 11
2 11 12
2 12 13
2 13 14
2 14 15
2 15 16
2 16 17
2 17 18
2 18 19
2 19 20
2 20 21
2 21 22
2 22 23
2 23 24
2 24 25
2 25 26
2 26 27
2 27 28
2 28 29
2 29 30
2 30 31
2 31 32
2 32 33
2 33 34
2 34 35
2 35 36
2 36 37
2 37 38
2 38 39
2 39 40
2 40 41
2 41 42
2 42 43
2 43 44
2 44 45
2 45 46
2 46 47
2 47 48
2 48 49
2 49 50
2 50 51
2 51 52
2 52 53
2 53 54
2 54 55
2 55 56
2 56 57
2 57 58
2 58 59
2 59 60
2 60 61
2 61 62
2 62 63
2 63 64
2 64 65
2 65 66
2 66 67
2 67 68
2 68 69
2 69 70
2 70 71
2 71 72
2 72 73
2 73 74
2 74 75
2 75 76
2 76 77
2 77 78
2 78 79
2 79 80
2 80 81
2 81 82
2 82 83
2 83 84
2 84 85
2 85 86
2 86 87
2 87 88
2 88 89
2 89 90
2 90 91
2 91 92
2 92 93
2 93 94
2 94 95
2 95 96
2 96 97
2 97 98
2 98 99
2 99 100
2 100 1

CELL_TYPES 100
3
3
3
3
3
3
3
3
3
3
3
3
3
3
3
3
3
3
3
3
3
3
3
3
3
3
3
3
3
3
3
3
3
3
3
3
3
3
3
3
3
3
3
3
3
3
3
3
3
3
3
3
3
3
3
3
3
3
3
3
3
3
3
3
3
3
3
3
3
3
3
3
3
3
3
3
3
3
3
3
3
3
3
3
3
3
3
3
3
3
3
3
3
3
3
3
3
3
3
3

CELL_DATA 100
SCALARS CellEntityIds float 1
LOOKUP_TABLE default
1.0
1.0
1.0
1.0
1.0
1.0
1.0
1.0
1.0
1.0
1.0
1.0
1.0
1.0
1.0
1.0
1.0
1.0
1.0
1.0
1.0
1.0
1.0
1.0
1.0
1.0
1.0
1.0
1.0
1.0
1.0
1.0
1.0
1.0
1.0
1.0
1.0
1.0
1.0
1.0
1.0
1.0
1.0
1.0
1.0
1.0
1.0
1.0
1.0
1.0
1.0
1.0
1.0
1.0
1.0
1.0
1.0
1.0
1.0
1.0
1.0
1.0
1.0
1.0
1.0
1.0
1.0
1.0
1.0
1.0
1.0
1.0
1.0
1.0
1.0
1.0
1.0
1.0
1.0
1.0
1.0
1.0
1.0
1.0
1.0
1.0
1.0
1.0
1.0
1.0
1.0
1.0
1.0
1.0
1.0
1.0
1.0
1.0
1.0
1.0
