# vtk DataFile Version 2.0
mesh vtk view
ASCII
DATASET UNSTRUCTURED_GRID
POINTS 101 double
0.0 0.0 0.0
20.0 0.0 0.0
0.1999999999998517 -0.011839999999993512 0.0
0.399999999999712 -0.04671999999997234 0.0
0.5999999999995541 -0.10367999999992665 0.0
0.7999999999993355 -0.18175999999983125 0.0
0.999999999999102 -0.27999999999969216 0.0
1.199999999998936 -0.397439999999557 0.0
1.399999999998797 -0.5331199999994141 0.0
1.599999999998657 -0.6860799999992446 0.0
1.799999999998517 -0.8553599999990463 0.0
1.999999999998378 -1.039999999998817 0.0
2.199999999998238 -1.2390399999985542 0.0
2.399999999998067 -1.451519999998224 0.0
2.599999999997705 -1.6764799999976339 0.0
2.799999999997153 -1.9129599999967501 0.0
2.999999999996569 -2.159999999995745 0.0
3.199999999995984 -2.416639999994663 0.0
3.3999999999954 -2.6819199999935166 0.0
3.599999999994816 -2.954879999992316 0.0
3.799999999994232 -3.2345599999910757 0.0
3.999999999993648 -3.519999999989807 0.0
4.199999999993064 -3.810239999988519 0.0
4.399999999992479 -4.104319999987214 0.0
4.599999999991895 -4.401279999985904 0.0
4.799999999991311 -4.70015999998459 0.0
4.999999999990727 -4.999999999983288 0.0
5.199999999990144 -5.299839999982017 0.0
5.399999999989559 -5.598719999980787 0.0
5.599999999988975 -5.8956799999796035 0.0
5.799999999988391 -6.189759999978469 0.0
5.999999999987806 -6.479999999977384 0.0
6.199999999987222 -6.765439999976353 0.0
6.399999999986638 -7.045119999975377 0.0
6.599999999986053 -7.318079999974455 0.0
6.79999999998547 -7.583359999973602 0.0
6.999999999984885 -7.839999999972842 0.0
7.199999999984302 -8.087039999972223 0.0
7.399999999983717 -8.32351999997179 0.0
7.599999999983132 -8.548479999971601 0.0
7.799999999982549 -8.760959999971712 0.0
7.999999999982034 -8.959999999972231 0.0
8.199999999982062 -9.144639999973604 0.0
8.399999999982366 -9.313919999975539 0.0
8.59999999998267 -9.466879999977786 0.0
8.799999999982973 -9.602559999980347 0.0
8.999999999983277 -9.7199999999832 0.0
9.19999999998358 -9.818239999986314 0.0
9.399999999983885 -9.896319999989636 0.0
9.599999999984188 -9.95327999999309 0.0
9.799999999984493 -9.988159999996585 0.0
9.999999999984798 -10.0 0.0
10.1999999999851 -9.988160000003221 0.0
10.39999999998541 -9.95328000000621 0.0
10.59999999998571 -9.89632000000897 0.0
10.79999999998601 -9.818240000011516 0.0
10.99999999998632 -9.720000000013831 0.0
11.19999999998662 -9.602560000015917 0.0
11.39999999998693 -9.466880000017749 0.0
11.59999999998723 -9.313920000019339 0.0
11.79999999998754 -9.14464000002067 0.0
11.99999999998784 -8.960000000021765 0.0
12.19999999998814 -8.760960000022653 0.0
12.39999999998845 -8.54848000002335 0.0
12.59999999998875 -8.3235200000239 0.0
12.79999999998905 -8.087040000024304 0.0
12.99999999998936 -7.8400000000245464 0.0
13.19999999998966 -7.583360000024644 0.0
13.39999999998997 -7.318080000024563 0.0
13.59999999999027 -7.0451200000243315 0.0
13.79999999999057 -6.765440000023947 0.0
13.99999999999088 -6.480000000023395 0.0
14.19999999999118 -6.189760000022714 0.0
14.39999999999149 -5.895680000021875 0.0
14.59999999999179 -5.598720000020926 0.0
14.7999999999921 -5.299840000019851 0.0
14.9999999999924 -5.000000000018698 0.0
15.1999999999927 -4.700160000017475 0.0
15.39999999999301 -4.4012800000161825 0.0
15.59999999999331 -4.104320000014874 0.0
15.79999999999361 -3.8102400000135557 0.0
15.99999999999392 -3.5200000000122356 0.0
16.19999999999422 -3.234560000010967 0.0
16.39999999999453 -2.954880000009731 0.0
16.59999999999483 -2.6819200000085814 0.0
16.79999999999514 -2.4166400000074906 0.0
16.99999999999544 -2.1600000000064985 0.0
17.19999999999574 -1.9129600000055806 0.0
17.39999999999605 -1.6764800000047286 0.0
17.59999999999635 -1.4515200000039714 0.0
17.79999999999665 -1.2390400000032846 0.0
17.99999999999696 -1.0400000000026628 0.0
18.19999999999726 -0.8553600000021188 0.0
18.39999999999756 -0.6860800000016432 0.0
18.59999999999787 -0.5331200000012294 0.0
18.79999999999817 -0.39744000000088575 0.0
18.99999999999848 -0.2800000000005996 0.0
19.19999999999878 -0.18176000000037623 0.0
19.39999999999909 -0.10368000000020554 0.0
19.59999999999939 -0.046720000000089745 0.0
19.7999999999997 -0.01184000000002149 0.0

CELLS 100 300
2 0 2
2 2 3
2 3 4
2 4 5
2 5 6
2 6 7
2 7 8
2 8 9
2 9 10
2 10 11
2 11 12
2 12 13
2 13 14
2 14 15
2 15 16
2 16 17
2 17 18
2 18 19
2 19 20
2 20 21
2 21 22
2 22 23
2 23 24
2 24 25
2 25 26
2 26 27
2 27 28
2 28 29
2 29 30
2 30 31
2 31 32
2 32 33
2 33 34
2 34 35
2 35 36
2 36 37
2 37 38
2 38 39
2 39 40
2 40 41
2 41 42
2 42 43
2 43 44
2 44 45
2 45 46
2 46 47
2 47 48
2 48 49
2 49 50
2 50 51
2 51 52
2 52 53
2 53 54
2 54 55
2 55 56
2 56 57
2 57 58
2 58 59
2 59 60
2 60 61
2 61 62
2 62 63
2 63 64
2 64 65
2 65 66
2 66 67
2 67 68
2 68 69
2 69 70
2 70 71
2 71 72
2 72 73
2 73 74
2 74 75
2 75 76
2 76 77
2 77 78
2 78 79
2 79 80
2 80 81
2 81 82
2 82 83
2 83 84
2 84 85
2 85 86
2 86 87
2 87 88
2 88 89
2 89 90
2 90 91
2 91 92
2 92 93
2 93 94
2 94 95
2 95 96
2 96 97
2 97 98
2 98 99
2 99 100
2 100 1

CELL_TYPES 100
3
3
3
3
3
3
3
3
3
3
3
3
3
3
3
3
3
3
3
3
3
3
3
3
3
3
3
3
3
3
3
3
3
3
3
3
3
3
3
3
3
3
3
3
3
3
3
3
3
3
3
3
3
3
3
3
3
3
3
3
3
3
3
3
3
3
3
3
3
3
3
3
3
3
3
3
3
3
3
3
3
3
3
3
3
3
3
3
3
3
3
3
3
3
3
3
3
3
3
3

CELL_DATA 100
SCALARS CellEntityIds float 1
LOOKUP_TABLE default
2.4499999998648136
2.349999999869508
2.2499999998749907
2.1499999998803228
2.0499999998857437
1.9499999998910624
1.849999999896303
1.7499999999014193
1.6499999999065302
1.5499999999117655
1.4499999999172601
1.3499999999225665
1.2499999999276952
1.1499999999330583
1.0499999999388905
0.9499999999448434
0.8499999999510202
0.7499999999573497
0.6499999999637893
0.5499999999700051
0.449999999975514
0.349999999981339
0.24999999998682654
0.14999999999257696
0.049999999999535305
-0.04999999999321858
-0.149999999987795
-0.24999999998278355
-0.34999999997728537
-0.4499999999716948
-0.549999999966829
-0.6499999999616328
-0.7499999999563549
-0.8499999999491088
-0.9499999999400757
-1.0499999999303817
-1.1499999999200234
-1.2499999999086526
-1.349999999898472
-1.449999999889588
-1.549999999879578
-1.6499999998702215
-1.7499999998633662
-1.8499999998590209
-1.949999999855132
-2.049999999854313
-2.1499999998546855
-2.249999999857529
-2.3499999998626935
-2.449999999869894
-2.44999999987875
-2.3499999998854983
-2.249999999889898
-2.1499999998954857
-2.0499999999027505
-1.949999999909796
-1.8499999999164753
-1.7499999999226112
-1.649999999928589
-1.5499999999319876
-1.449999999934331
-1.349999999937797
-1.2499999999416929
-1.1499999999469281
-1.0499999999537017
-0.9499999999609052
-0.8499999999668368
-0.7499999999721076
-0.6499999999775383
-0.5499999999830827
-0.44999999998827533
-0.3499999999933898
-0.24999999999744205
-0.15000000000162217
-0.050000000005478995
0.04999999999029825
0.14999999998667235
0.24999999998307487
0.3499999999797119
0.44999999997590834
0.5499999999720835
0.6499999999676689
0.7499999999632543
0.8499999999580616
0.949999999952098
1.0499999999459853
1.149999999940242
1.249999999934026
1.3499999999277783
1.4499999999216975
1.5499999999156024
1.6499999999094968
1.7499999999034141
1.8499999998971717
1.9499999998909558
2.049999999884701
2.149999999878464
2.249999999872191
2.349999999865938
2.4499999998596866
