# vtk DataFile Version 2.0
mesh vtk view
ASCII
DATASET UNSTRUCTURED_GRID
POINTS 89 double
0.0 0.0 0.0
5.0 0.0 0.0
-2.431067641329569e-13 1.9999999999999862 -2.238670052230302
4.999999999999765 2.000000000000001 2.2384565879097806
-4.1660304121471505e-13 3.9999999999999796 -5.525710976561534
4.999999999999591 4.000000000000001 5.525770952676419
-5.191048781871427e-13 5.999999999999981 -7.646014483295763
4.999999999999473 5.999999999999999 7.646993431975457
-5.196762758253634e-15 0.19999999999962698 -0.03658197383387662
-1.939447806554342e-14 0.3999999999991111 -0.13999237274606527
-4.0570654462804176e-14 0.5999999999985259 -0.3007314153742373
-6.688810286128961e-14 0.7999999999979407 -0.5093100187335722
-9.660607980801853e-14 0.9999999999973771 -0.7562604917322681
-1.283098896918951e-13 1.1999999999978817 -1.032150468175398
-1.6018764374676784e-13 1.3999999999984083 -1.3275994385018743
-1.9077392402392554e-13 1.5999999999989338 -1.6332972419645
-2.1885229867927553e-13 1.7999999999994596 -1.9400238844856317
4.999999999999996 0.19999999999962834 0.03657659052484001
4.999999999999982 0.39999999999911395 0.13997248547507044
4.999999999999962 0.5999999999985305 0.30069026018237227
4.999999999999937 0.7999999999979469 0.509243037859945
4.9999999999999085 0.999999999997385 0.7561651817221743
4.999999999999878 1.199999999997891 1.0320262262810398
4.999999999999848 1.399999999998419 1.3274474072030842
4.999999999999818 1.5999999999989456 1.6331201515655738
4.9999999999997895 1.7999999999994727 1.9398258938625113
0.4999999999993501 2.000000000000025 -1.7970885730919397
0.9999999999981672 2.0000000000000377 -1.3556496183644084
1.4999999999967073 2.000000000000031 -0.9094716649581388
1.999999999995264 2.0000000000000115 -0.457256482093638
2.4999999999959552 1.9999999999999853 -0.00010852104100145503
2.9999999999967173 1.999999999999959 0.4570401543532371
3.4999999999974776 1.9999999999999405 0.9092571935460962
3.9999999999982405 1.999999999999938 1.3554372869335773
4.499999999999003 1.9999999999999576 1.796877239860566
-2.6512802410395814e-13 2.1999999999999855 -2.5453507308162386
-2.8739894913117356e-13 2.3999999999999844 -2.8768576164051782
-3.0840788633193443e-13 2.599999999999984 -3.2253247327014707
-3.291636050943932e-13 2.799999999999983 -3.5830813022617294
-3.48401614012042e-13 2.9999999999999827 -3.9426751867915617
-3.661085223167903e-13 3.199999999999982 -4.296896960769149
-3.820126864555451e-13 3.3999999999999813 -4.638804114316879
-3.957961287559732e-13 3.599999999999981 -4.961744897678125
-4.0754850663117906e-13 3.7999999999999803 -5.259381337721079
4.999999999999743 2.200000000000001 2.545128294014284
4.999999999999722 2.400000000000001 2.8766334961130275
4.9999999999997025 2.6000000000000014 3.225106806258047
4.999999999999683 2.800000000000001 3.5828778655074527
4.999999999999665 3.0000000000000013 3.9424947846501786
4.999999999999648 3.2000000000000015 4.296748218815893
4.999999999999632 3.4000000000000012 4.638695571908167
4.999999999999618 3.6000000000000014 4.961684843223475
4.999999999999605 3.8000000000000007 5.259377646672204
0.4999999999991773 3.9999999999999876 -4.573493965691609
0.9999999999979956 3.9999999999999782 -3.5303867755113925
1.4999999999965368 3.999999999999962 -2.4064173074050488
1.9999999999950948 3.9999999999999454 -1.2209148794305205
2.499999999995788 3.9999999999999307 0.00045389394930404946
2.9999999999965508 3.9999999999999227 1.2217865177298037
3.49999999999731 3.9999999999999267 2.4071816814209646
3.9999999999980713 3.999999999999943 3.5309762290001308
4.499999999998831 3.9999999999999694 4.573846292625658
-4.2536158219556414e-13 4.19999999999998 -5.776477964903998
-4.350625893190013e-13 4.39999999999998 -6.028172198412926
-4.4571761153756716e-13 4.599999999999979 -6.276469617947609
-4.567074137613833e-13 4.799999999999979 -6.517454293395886
-4.687727582112835e-13 4.99999999999998 -6.747635156833633
-4.805566740018687e-13 5.199999999999981 -6.9639622490512645
-4.91885397841483e-13 5.399999999999981 -7.163842243403316
-5.025310849764009e-13 5.59999999999998 -7.3451530407883565
-5.113520360121446e-13 5.799999999999981 -7.5062572604653806
4.999999999999579 4.200000000000001 5.776608277137699
4.9999999999995675 4.400000000000001 6.0283791069976616
4.999999999999555 4.6 6.276758967401583
4.999999999999543 4.8 6.517831428292947
4.99999999999953 5.0 6.748104843145206
4.999999999999519 5.2 6.964528601420963
4.999999999999507 5.3999999999999995 7.164508658675361
4.999999999999495 5.599999999999999 7.345922138067142
4.999999999999484 5.799999999999999 7.5071308279349145
0.499999999999075 5.999999999999994 -6.367442983605907
0.9999999999978916 5.999999999999996 -4.937099014021905
1.4999999999964297 5.99999999999999 -3.3751671736146545
1.9999999999949845 5.999999999999981 -1.7148315485614036
2.499999999995674 5.999999999999971 0.0018406106630011302
2.9999999999964335 5.999999999999961 1.718395472739151
3.499999999997192 5.999999999999957 3.378384022641349
3.9999999999979527 5.999999999999964 4.939753150648152
4.499999999998713 5.999999999999978 6.36934132411551

CELLS 90 270
2 0 8
2 8 9
2 9 10
2 10 11
2 11 12
2 12 13
2 13 14
2 14 15
2 15 16
2 16 2
2 1 17
2 17 18
2 18 19
2 19 20
2 20 21
2 21 22
2 22 23
2 23 24
2 24 25
2 25 3
2 2 26
2 26 27
2 27 28
2 28 29
2 29 30
2 30 31
2 31 32
2 32 33
2 33 34
2 34 3
2 2 35
2 35 36
2 36 37
2 37 38
2 38 39
2 39 40
2 40 41
2 41 42
2 42 43
2 43 4
2 3 44
2 44 45
2 45 46
2 46 47
2 47 48
2 48 49
2 49 50
2 50 51
2 51 52
2 52 5
2 4 53
2 53 54
2 54 55
2 55 56
2 56 57
2 57 58
2 58 59
2 59 60
2 60 61
2 61 5
2 4 62
2 62 63
2 63 64
2 64 65
2 65 66
2 66 67
2 67 68
2 68 69
2 69 70
2 70 6
2 5 71
2 71 72
2 72 73
2 73 74
2 74 75
2 75 76
2 76 77
2 77 78
2 78 79
2 79 7
2 6 80
2 80 81
2 81 82
2 82 83
2 83 84
2 84 85
2 85 86
2 86 87
2 87 88
2 88 7

CELL_TYPES 90
3
3
3
3
3
3
3
3
3
3
3
3
3
3
3
3
3
3
3
3
3
3
3
3
3
3
3
3
3
3
3
3
3
3
3
3
3
3
3
3
3
3
3
3
3
3
3
3
3
3
3
3
3
3
3
3
3
3
3
3
3
3
3
3
3
3
3
3
3
3
3
3
3
3
3
3
3
3
3
3
3
3
3
3
3
3
3
3
3
3

POINT_DATA 89
SCALARS MODE2_15.7142_Hz float 1
LOOKUP_TABLE default
0.0
0.0
0.011193350261151508
0.011192282939548904
0.02762855488280767
0.027628854763382095
0.038230072416478814
0.03823496715987729
0.0001829098691693831
0.0006999618637303263
0.0015036570768711865
0.002546550093667861
0.00378130245866134
0.00516075234087699
0.006637997192509372
0.0081664862098225
0.009700119422428159
0.00018288295262420005
0.0006998624273753522
0.0015034513009118612
0.002546215189299725
0.0037808259086108712
0.0051601311314051984
0.0066372370360154205
0.008165600757827868
0.009699129469312557
0.008985442865459698
0.006778248091822043
0.004547358324790694
0.00228628241046819
5.426052050072751e-07
0.0022852007717661855
0.004546285967730481
0.006777186434667887
0.00898438619930283
0.012726753654081192
0.014384288082025892
0.016126623663507353
0.017915406511308647
0.01971337593395781
0.021484484803845745
0.023194020571584397
0.024808724488390627
0.026296906688605397
0.01272564147007142
0.014383167480565139
0.016125534031290235
0.017914389327537264
0.019712473923250894
0.021483741094079467
0.02319347785954084
0.024808424216117377
0.026296888233361022
0.022867469828458047
0.017651933877556963
0.012032086537025245
0.006104574397152602
2.2694697465202474e-06
0.0061089325886490185
0.012035908407104822
0.017654881145000655
0.022869231463128286
0.028882389824519992
0.030140860992064627
0.03138234808973805
0.03258727146697943
0.03373817578416816
0.03481981124525632
0.03581921121701658
0.03672576520394178
0.037531286302326904
0.028883041385688493
0.030141895534988306
0.031383794837007914
0.032589157141464736
0.03374052421572603
0.03482264300710482
0.03582254329337681
0.03672961069033571
0.03753565413967457
0.03183721491802954
0.024685495070109528
0.016875835868073272
0.008574157742807018
9.20305331500565e-06
0.008591977363695755
0.016891920113206744
0.024698765753240762
0.03184670662057755

