# vtk DataFile Version 2.0
mesh vtk view
ASCII
DATASET UNSTRUCTURED_GRID
POINTS 89 double
0.0 0.0 0.0
5.0 0.0 0.0
0.0 2.0 0.0
5.0 2.0 0.0
0.0 4.0 0.0
5.0 4.0 0.0
0.0 6.0 0.0
5.0 6.0 0.0
0.0 0.1999999999996283 0.0
0.0 0.3999999999991138 0.0
0.0 0.59999999999853 0.0
0.0 0.7999999999979462 0.0
0.0 0.9999999999973842 0.0
0.0 1.19999999999789 0.0
0.0 1.399999999998418 0.0
0.0 1.599999999998945 0.0
0.0 1.799999999999472 0.0
5.0 0.1999999999996283 0.0
5.0 0.3999999999991138 0.0
5.0 0.59999999999853 0.0
5.0 0.7999999999979462 0.0
5.0 0.9999999999973842 0.0
5.0 1.19999999999789 0.0
5.0 1.399999999998418 0.0
5.0 1.599999999998945 0.0
5.0 1.799999999999472 0.0
0.4999999999995944 2.0 0.0
0.999999999998412 2.0 0.0
1.499999999996952 2.0 0.0
1.999999999995508 2.0 0.0
2.499999999996199 2.0 0.0
2.99999999999696 2.0 0.0
3.499999999997719 2.0 0.0
3.99999999999848 2.0 0.0
4.49999999999924 2.0 0.0
0.0 2.2 0.0
0.0 2.4 0.0
0.0 2.6 0.0
0.0 2.8 0.0
0.0 3.0 0.0
0.0 3.2 0.0
0.0 3.4 0.0
0.0 3.6 0.0
0.0 3.8 0.0
5.0 2.2 0.0
5.0 2.4 0.0
5.0 2.6 0.0
5.0 2.8 0.0
5.0 3.0 0.0
5.0 3.2 0.0
5.0 3.4 0.0
5.0 3.6 0.0
5.0 3.8 0.0
0.4999999999995944 4.0 0.0
0.999999999998412 4.0 0.0
1.499999999996952 4.0 0.0
1.999999999995508 4.0 0.0
2.499999999996199 4.0 0.0
2.99999999999696 4.0 0.0
3.499999999997719 4.0 0.0
3.99999999999848 4.0 0.0
4.49999999999924 4.0 0.0
0.0 4.2 0.0
0.0 4.4 0.0
0.0 4.6 0.0
0.0 4.8 0.0
0.0 5.0 0.0
0.0 5.2 0.0
0.0 5.4 0.0
0.0 5.6 0.0
0.0 5.8 0.0
5.0 4.2 0.0
5.0 4.4 0.0
5.0 4.6 0.0
5.0 4.8 0.0
5.0 5.0 0.0
5.0 5.2 0.0
5.0 5.4 0.0
5.0 5.6 0.0
5.0 5.8 0.0
0.4999999999995944 6.0 0.0
0.999999999998412 6.0 0.0
1.499999999996952 6.0 0.0
1.999999999995508 6.0 0.0
2.499999999996199 6.0 0.0
2.99999999999696 6.0 0.0
3.499999999997719 6.0 0.0
3.99999999999848 6.0 0.0
4.49999999999924 6.0 0.0

CELLS 90 270
2 0 8
2 8 9
2 9 10
2 10 11
2 11 12
2 12 13
2 13 14
2 14 15
2 15 16
2 16 2
2 1 17
2 17 18
2 18 19
2 19 20
2 20 21
2 21 22
2 22 23
2 23 24
2 24 25
2 25 3
2 2 26
2 26 27
2 27 28
2 28 29
2 29 30
2 30 31
2 31 32
2 32 33
2 33 34
2 34 3
2 2 35
2 35 36
2 36 37
2 37 38
2 38 39
2 39 40
2 40 41
2 41 42
2 42 43
2 43 4
2 3 44
2 44 45
2 45 46
2 46 47
2 47 48
2 48 49
2 49 50
2 50 51
2 51 52
2 52 5
2 4 53
2 53 54
2 54 55
2 55 56
2 56 57
2 57 58
2 58 59
2 59 60
2 60 61
2 61 5
2 4 62
2 62 63
2 63 64
2 64 65
2 65 66
2 66 67
2 67 68
2 68 69
2 69 70
2 70 6
2 5 71
2 71 72
2 72 73
2 73 74
2 74 75
2 75 76
2 76 77
2 77 78
2 78 79
2 79 7
2 6 80
2 80 81
2 81 82
2 82 83
2 83 84
2 84 85
2 85 86
2 86 87
2 87 88
2 88 7

CELL_TYPES 90
3
3
3
3
3
3
3
3
3
3
3
3
3
3
3
3
3
3
3
3
3
3
3
3
3
3
3
3
3
3
3
3
3
3
3
3
3
3
3
3
3
3
3
3
3
3
3
3
3
3
3
3
3
3
3
3
3
3
3
3
3
3
3
3
3
3
3
3
3
3
3
3
3
3
3
3
3
3
3
3
3
3
3
3
3
3
3
3
3
3

CELL_DATA 90
SCALARS NODISPL float 1
LOOKUP_TABLE default
1.0
1.0
1.0
1.0
1.0
1.0
1.0
1.0
1.0
1.0
2.0
2.0
2.0
2.0
2.0
2.0
2.0
2.0
2.0
2.0
3.0
3.0
3.0
3.0
3.0
3.0
3.0
3.0
3.0
3.0
4.0
4.0
4.0
4.0
4.0
4.0
4.0
4.0
4.0
4.0
5.0
5.0
5.0
5.0
5.0
5.0
5.0
5.0
5.0
5.0
6.0
6.0
6.0
6.0
6.0
6.0
6.0
6.0
6.0
6.0
7.0
7.0
7.0
7.0
7.0
7.0
7.0
7.0
7.0
7.0
8.0
8.0
8.0
8.0
8.0
8.0
8.0
8.0
8.0
8.0
9.0
9.0
9.0
9.0
9.0
9.0
9.0
9.0
9.0
9.0

