# vtk DataFile Version 2.0
mesh vtk view
ASCII
DATASET UNSTRUCTURED_GRID
POINTS 861 double
0.0 0.0 0.0
390.00057044230925 -0.7545356228186235 0.0
390.0005704423093 200.75453562281854 0.0
0.0 200.0 0.0
9.644776843343054 -0.23606225667347114 0.0
19.373700880931082 -0.37160233041174134 0.0
29.128580037625547 -0.47338216834525315 0.0
38.892259720474556 -0.5486182869142068 0.0
48.659247667365754 -0.6056628019139195 0.0
58.4269077198081 -0.6489550281220209 0.0
68.1939067626787 -0.6817129667084236 0.0
77.95953720333779 -0.7062903257862706 0.0
87.72345286614424 -0.7244996793940165 0.0
97.48552536719414 -0.7377625494029505 0.0
107.24576169265161 -0.7472066178782347 0.0
117.00425201237763 -0.7537296056306952 0.0
126.76113516989342 -0.758045326897844 0.0
136.51657521255112 -0.7607186699767696 0.0
146.27074534370124 -0.7621933388666279 0.0
156.02381709505147 -0.7628144597803107 0.0
165.77595327427468 -0.7628472938067138 0.0
175.52730367100116 -0.7624928292021275 0.0
185.27800277011335 -0.761900777673799 0.0
195.02816890171795 -0.7611803639163512 0.0
204.77790438952135 -0.7604092222445474 0.0
214.52729636169352 -0.7596406686204461 0.0
224.2764179697629 -0.7589095849705044 0.0
234.0253298264771 -0.7582371274654218 0.0
243.77408152586105 -0.7576344477138277 0.0
253.5227131500401 -0.7571055941821876 0.0
263.27125669926016 -0.756649740291351 0.0
273.0197374062187 -0.7562628657214843 0.0
282.768174913522 -0.7559389987883517 0.0
292.5165843057722 -0.7556711106220432 0.0
302.2649769966769 -0.7554517364966693 0.0
312.0133614766896 -0.7552733861673585 0.0
321.76174392924 -0.7551287935926386 0.0
331.5101287236319 -0.7550110471907295 0.0
341.2585187900277 -0.7549136354781291 0.0
351.00691587558424 -0.7548304416172477 0.0
360.755320668477 -0.7547557307666402 0.0
370.50373275693653 -0.7546842190914187 0.0
380.2521503923101 -0.7546114770151854 0.0
390.00049324688774 9.320938009299836 0.0
390.00041298093487 19.39640930750119 0.0
390.0003314978216 29.471875435426224 0.0
390.00025270243304 39.54733519174953 0.0
390.0001804366129 49.62278872961464 0.0
390.00011784112786 59.69823694540714 0.0
390.0000672272348 69.77368103009722 0.0
390.0000301538727 79.84912219348091 0.0
390.00000757721205 89.92456153099647 0.0
390.0 99.99999999964467 0.0
390.00000757721205 110.07543846829286 0.0
390.00003015387273 120.15087780580848 0.0
390.00006722723487 130.22631896921115 0.0
390.0001178411279 140.3017630539845 0.0
390.00018043661294 150.3772112698845 0.0
390.0002527024331 160.4526648078569 0.0
390.00033149782166 170.5281245642876 0.0
390.0004129809349 180.6035906923111 0.0
390.0004932468878 190.67906199060417 0.0
380.25215039243284 200.75461147701512 0.0
370.5037327571818 200.75468421909136 0.0
360.75532066884494 200.7547557307666 0.0
351.00691587607463 200.7548304416172 0.0
341.2585187906407 200.7549136354781 0.0
331.5101287243675 200.7550110471907 0.0
321.7617439300981 200.7551287935926 0.0
312.0133614776703 200.75527338616732 0.0
302.2649769977802 200.75545173649664 0.0
292.51658430699797 200.75567111062202 0.0
282.76817491487043 200.7559389987883 0.0
273.0197374076899 200.75626286572142 0.0
263.27125670085377 200.7566497402913 0.0
253.5227131517563 200.75710559418212 0.0
243.77408152763496 200.75763444771374 0.0
234.02532982823504 200.75823712746532 0.0
224.27641797150488 200.7589095849704 0.0
214.52729636341962 200.75964066862034 0.0
204.77790439123154 200.76040922224445 0.0
195.0281689034123 200.76118036391625 0.0
185.2780027717918 200.76190077767373 0.0
175.52730367266372 200.76249282920207 0.0
165.77595327592135 200.76284729380671 0.0
156.02381709668245 200.7628144597804 0.0
146.2707453453164 200.76219333886684 0.0
136.5165752141137 200.76071866997714 0.0
126.76113517137087 200.7580453268984 0.0
117.00425201374728 200.7537296056315 0.0
107.24576169390156 200.7472066178793 0.0
97.48552536832432 200.7377625494043 0.0
87.72345286715459 200.72449967939568 0.0
77.95953720422823 200.70629032578825 0.0
68.19390676344922 200.6817129667107 0.0
58.426907720458615 200.64895502812456 0.0
48.65924766789755 200.60566280191668 0.0
38.89225972090217 200.54861828691713 0.0
29.12858003795022 200.47338216834822 0.0
19.373700881148334 200.37160233041448 0.0
9.64477684344958 200.23606225667544 0.0
0.0 190.0000000000711 0.0
0.0 180.0000000001421 0.0
0.0 170.0000000002132 0.0
0.0 160.0000000002842 0.0
0.0 150.0000000003553 0.0
0.0 140.0000000004263 0.0
0.0 130.0000000004974 0.0
0.0 120.0000000005163 0.0
0.0 110.0000000005163 0.0
0.0 100.0000000005163 0.0
0.0 90.00000000051627 0.0
0.0 80.00000000051628 0.0
0.0 70.00000000049741 0.0
0.0 60.00000000042633 0.0
0.0 50.0000000003553 0.0
0.0 40.00000000028422 0.0
0.0 30.00000000021316 0.0
0.0 20.00000000014211 0.0
0.0 10.00000000007105 0.0
9.743027620976042 9.84533209452049 0.0
9.762713943929365 19.88238779476596 0.0
9.772133962374793 29.906243534374852 0.0
9.776716577217922 39.924631688390946 0.0
9.779306697283658 49.94003911435187 0.0
9.780839736555382 59.95364030241545 0.0
9.781772844129211 69.96607667619115 0.0
9.782329573760693 79.97776008979307 0.0
9.782626397097502 89.98898786179363 0.0
9.782719696797535 100.00000000049513 0.0
9.78262639710826 110.01101213919665 0.0
9.782329573782203 120.02223991119719 0.0
9.78177284416147 130.0339233247629 0.0
9.78083973659838 140.0463596984021 0.0
9.77930669733738 150.0599608863299 0.0
9.776716577282343 160.0753683121549 0.0
9.772133962449853 170.0937564660354 0.0
9.762713944014981 180.11761220550835 0.0
9.743027621071896 190.15466790561797 0.0
19.466319351674517 9.701891408446924 0.0
19.512107973489535 19.766343274689333 0.0
19.53232027017282 29.81295575978481 0.0
19.543295756567954 39.849679868845215 0.0
19.549628609633285 49.88054185768302 0.0
19.553500541764322 59.90772777090091 0.0
19.55591099973065 69.9325281338875 0.0
19.557377234823313 79.95578623792841 0.0
19.558169540820067 89.978113094603 0.0
19.558420356132004 100.00000000047383 0.0
19.558169540841828 110.02188690634475 0.0
19.5573772348668 120.0442137630195 0.0
19.555910999795866 130.0674718670257 0.0
19.553500541851257 140.0922722298814 0.0
19.5496286097419 150.11945814296968 0.0
19.54329575669819 160.15032013167803 0.0
19.53232027032458 170.18704424060903 0.0
19.512107973662648 180.2336567255747 0.0
19.466319351868997 190.29810859168663 0.0
29.204483228332368 9.599585285573006 0.0
29.25466856416623 19.66911950647146 0.0
29.284184313312814 29.729643690896303 0.0
29.30135490716438 39.78068438090762 0.0
29.31191868421297 49.82491995103789 0.0
29.31860331293727 59.86444005480013 0.0
29.3228739593038 69.90074223461575 0.0
29.325517534908855 79.9349078403333 0.0
29.326962448950567 89.96776508690758 0.0
29.327422424383624 100.00000000045254 0.0
29.32696244898297 110.03223491399763 0.0
29.32551753497365 120.06509216057204 0.0
29.322873959400958 130.0992577662564 0.0
29.318603313066777 140.13555994594662 0.0
29.31191868437478 150.17508004958555 0.0
29.30135490735844 160.21931561959255 0.0
29.284184313539022 170.27035630948066 0.0
29.2546685644246 180.33088049378136 0.0
29.204483228623314 190.40041471455487 0.0
38.95290091316275 9.522933446505744 0.0
38.99974567261378 19.5943446709884 0.0
39.032253382753844 29.66105646130153 0.0
39.053778543577856 39.72143396718598 0.0
39.067947468632944 49.775870731822835 0.0
39.07735058608019 59.825631956936974 0.0
39.08354464653065 69.87194912683849 0.0
39.08745836150369 79.9158756125854 0.0
39.089624513972055 89.9582998903028 0.0
39.09031825774276 100.00000000043119 0.0
39.08962451401468 110.04170011055969 0.0
39.08745836158888 120.08412438827726 0.0
39.08354464665842 130.1280508739923 0.0
39.07735058625054 140.1743680437741 0.0
39.0679474688458 150.22412926877107 0.0
39.0537785438332 160.27856603329067 0.0
39.03225338305169 170.33894353905788 0.0
38.99974567295426 180.4056553292528 0.0
38.952900913546415 190.47706655361608 0.0
48.70722321750415 9.465374691622566 0.0
48.74820522820032 19.537305339877573 0.0
48.77998430680754 29.607157187109312 0.0
48.803222692907916 39.67311148328593 0.0
48.819716153698835 49.73472886558083 0.0
48.831224204923956 59.79242435173541 0.0
48.839073420416945 69.84697658095524 0.0
48.84414819169823 79.89922579671334 0.0
48.84699692084687 89.9499797315866 0.0
48.847915411691346 100.00000000040974 0.0
48.84699692089985 110.05002026923289 0.0
48.84414819180413 120.10077420410641 0.0
48.83907342057579 130.153023419834 0.0
48.8312242051357 140.2075756489396 0.0
48.81971615396348 150.26527113498318 0.0
48.80322269322549 160.326888517167 0.0
48.779984307178125 170.39284281323236 0.0
48.74820522862415 180.46269466035167 0.0
48.70722321798167 190.53462530849316 0.0
58.464591435711725 9.421964874637638 0.0
58.49930654012743 19.494173266624955 0.0
58.528471635667564 29.565703511141738 0.0
58.55148722980722 39.63507325414451 0.0
58.56890207196923 49.7015666563033 0.0
58.58166246254646 59.765140684783184 0.0
58.59067467214098 69.82616724320444 0.0
58.59664240918019 79.88521918220312 0.0
58.600042527912485 89.94294215542402 0.0
58.60114663774393 100.0000000003882 0.0
58.60004252797728 110.05705784535235 0.0
58.59664240930971 120.11478081857341 0.0
58.590674672335226 130.17383275754298 0.0
58.58166246280551 140.2348593158557 0.0
58.56890207229307 150.29843334423057 0.0
58.5514872301959 160.36492674628434 0.0
58.52847163612123 170.43429648918206 0.0
58.49930654064631 180.50582673359227 0.0
58.464591436296224 190.57803512547196 0.0
68.22326720030632 9.389367960536976 0.0
68.25208661842659 19.461814364158908 0.0
68.27786568680887 29.534356432321932 0.0
68.29945938010864 39.60587707854085 0.0
68.31668135358368 49.675673074191636 0.0
68.32985313383918 59.74349272927425 0.0
68.33946377511302 69.8094424051928 0.0
68.34597579279408 79.8738581234857 0.0
68.34974065591074 89.93720273301145 0.0
68.35097189637065 100.0000000003665 0.0
68.34974065598745 110.06279726772169 0.0
68.34597579294753 120.12614187724758 0.0
68.33946377534318 130.19055759551276 0.0
68.32985313414608 140.2565072713282 0.0
68.3166813539674 150.324326926312 0.0
68.29945938056929 160.39412292186384 0.0
[...]
POINT_DATA 861
SCALARS CellEntityIds float 1
LOOKUP_TABLE default
0.0
0.009964891831447184
0.009964891831447099
0.0
0.00042382972050872806
0.0007236710356467099
0.0009854703565116841
0.0012283896847549362
0.001461967302239163
0.0016910088728364536
0.001918346200216671
0.0021456860107989745
0.0023740505011092643
0.0026040185186886884
0.002835876039557586
0.0030697156160739156
0.003305504667022537
0.0035431331711754687
0.0037824470547896953
0.0040232713338595955
0.004265425810118978
0.004508735338893786
0.004753036163806207
0.004998179440148089
0.00524403279076665
0.005490480526065825
0.005737422995948966
0.00598477541503776
0.006232466405344008
0.00648043642666661
0.006728636209485063
0.006977025264115874
0.0072255705101735065
0.007474245049389737
0.00772302709057401
0.007971899026372794
0.008220846656416047
0.008469858549779961
0.008718925541422867
0.008968040363312465
0.009217197423997481
0.009466392773175713
0.009715624297686609
0.009959605885429339
0.009954885379875643
0.009950729376614623
0.009947134644622732
0.009944097828547143
0.00994161615320939
0.009939687591630565
0.009938310805616362
0.009937485000302991
0.00993720977230258
0.009937485000302946
0.009938310805616274
0.009939687591630424
0.009941616153209218
0.009944097828546956
0.009947134644622553
0.009950729376614453
0.0099548853798755
0.009959605885429228
0.00971562429768966
0.009466392773181894
0.009217197424006798
0.008968040363324914
0.008718925541438454
0.008469858549798677
0.008220846656437885
0.007971899026397758
0.0077230270906021034
0.007474245049420953
0.0072255705102078375
0.0069770252641533186
0.006728636209525613
0.0064804364267102505
0.0062324664053890755
0.0059847754150823725
0.00573742299599312
0.005490480526109506
0.005244032790809833
0.004998179440190762
0.004753036163848345
0.004508735338935366
0.004265425810159981
0.004023271333900006
0.003782447054829479
0.0035431331712137
0.0033055046670584128
0.003069715616106911
0.002835876039587447
0.00260401851871546
0.0023740505011330135
0.002145686010819779
0.0019183462002346275
0.0016910088728516667
0.0014619673022517707
0.0012283896847653892
0.0009854703565201175
0.0007236710356530797
0.00042382972051285047
0.0
0.0
0.0
0.0
0.0
0.0
0.0
0.0
0.0
0.0
0.0
0.0
0.0
0.0
0.0
0.0
0.0
0.0
0.0
0.00029804500929811456
0.0002631715809855311
0.0002448533447978258
0.00023418077825865642
0.00022725779937114826
0.00022260335308516154
0.00021946139023788772
0.00021742975609004983
0.000216285717310558
0.00021591599524708923
0.00021628571731087452
0.0002174297560906929
0.00021946139023887112
0.00022260335308647657
0.00022725779937281533
0.0002341807782607117
0.0002448533448003408
0.0002631715809886216
0.0002980450093021277
0.0006074584445566385
0.0005375599687097838
0.0005005334955026646
0.0004777875230220723
0.0004630192077631434
0.0004530713088113361
0.0004463649207567584
0.00044203247926635124
0.0004395945663234055
0.0004388069552598632
0.0004395945663240631
0.00044203247926768633
0.0004463649207587996
0.00045307130881406865
0.0004630192077666094
0.00047778752302634323
0.0005005334955078482
0.0005375599687160274
0.0006074584445637579
0.0008850137699087522
0.0008103554514172678
0.000760365156955546
0.0007276618506666484
0.0007055481365702457
0.0006903879217352013
0.0006800651890718651
0.0006733613375250819
0.0006695781868602238
0.0006683544457511811
0.0006695781868612242
0.0006733613375271117
0.0006800651890749621
0.0006903879217393374
0.0007055481365754676
0.0007276618506730177
0.0007603651569631159
0.0008103554514259444
0.0008850137699179111
0.0011434309026810635
0.001072604288820785
0.0010189474755089778
0.0009801807424081367
0.0009526026409723819
0.000933085559907999
0.0009195476630077351
0.0009106568527568866
0.0009056077686693798
0.0009039698299492537
0.0009056077686707115
0.0009106568527595822
0.0009195476630118342
0.0009330855599134481
0.0009526026409792045
0.0009801807424163402
0.0010189474755184932
0.0010726042888313202
0.0011434309026919765
0.0013901783658994704
0.0013261899864439892
0.0012736556178035458
0.0012328277321015878
0.0012021308165474716
0.0011796118919184095
0.0011636157338825361
0.001152951394428266
0.0011468410316281346
0.0011448506230285133
0.001146841031629789
0.001152951394431608
0.0011636157338875944
0.001179611891925096
0.0012021308165557716
0.0012328277321114376
0.0012736556178147762
0.0013261899864562444
0.0013901783659121928
0.0016303094485324242
0.0015737044127123508
0.0015246442936450956
0.001484394563041004
0.0014527044268625633
0.0014286239118215464
0.0014110892836305207
0.0013992025978578012
0.0013923220757160423
0.001390069930235667
0.0013923220757180407
0.0013992025978618254
0.0014110892836365805
0.001428623911829525
0.0014527044268723985
0.0014843945630525746
0.0015246442936581819
0.001573704412726594
0.0016303094485473654
0.0018669398950321133
0.0018174080791983516
0.001772774417457033
0.0017346541151845333
0.0017035141713477207
0.001679119870907883
0.0016609393652020556
0.001648411437682567
0.0016410842076326117
0.001638673818720955
0.0016410842076349382
0.0016484114376872402
0.001660939365209067
0.0016791198709170836
0.0017035141713590124
0.001734654115197762
0.0017727744174719584
0.0018174080792146457
0.0018669398950493972
0.002102051006676435
0.0020589560954454625
0.0020189823229880294
0.0019837882379662875
0.001954195578046356
0.0019304225975681293
0.0019123438775481769
0.0018996994982095386
0.0018922322317179291
0.0018897640641781703
0.0018922322317205683
0.0018996994982148254
0.0019123438775560863
0.0019304225975784897
0.001954195578059052
0.00198378823798114
0.0020189823230048055
0.0020589560954638684
0.0021020510066961594
0.002336894592222741
0.0022995021335763203
0.0022640493333435153
0.002232102702160072
0.0022046274354682502
0.0021821034664037614
0.002164683843163263
0.002152343655518733
0.002144993614800577
0.002142553847717009
0.002144993614803515
0.002152343655524607
0.002164683843172032
0.0021821034664152466
0.002204627435482321
0.00223210270217655
0.0022640493333621766
0.0022995021335969084
0.002336894592244999
0.002572244696436904
0.0025398193472170026
0.002508563658416488
0.002479895437361283
0.00245480389689648
0.002433900804040788
0.002417512422743422
0.0024057789743143444
0.00239873981823861
0.002396394750899736
0.002398739818241836
0.002405778974320786
0.002417512422753028
0.0024339008040533752
0.002454803896911918
0.0024798954373793976
0.0025085636584370767
0.002539819347239841
0.00257224469646178
0.0028085550762726908
0.0027804047941154836
0.0027529397395243257
0.002727410304019443
0.0027047637344983803
0.002685659297477712
0.0026705176936695748
0.002659583664783389
0.002652985359759464
0.0026507805717114275
0.00265298535976297
0.0026595836647903886
0.0026705176936800057
0.0026856592974913965
0.002704763734515195
0.0027274103040392235
0.0027529397395468854
0.0027804047941406324
0.002808555076300248
0.0030460638001660535
0.003021559122014823
0.0029974530991671014
0.002974828573430767
0.0029545562659464087
0.002937290058533298
0.002923489550942957
0.0029134565215017056
0.002907373499643366
0.0029053360115557404
0.002907373499647152
0.0029134565215092516
0.002923489550954203
0.002937290058548084
0.002954556265964612
0.0029748285734522376
0.0029974530991916763
0.0030215591220423286
0.003046063800196348
0.0032848648082202526
0.003263445808824315
0.003242274628269319
0.003222275607826105
0.003204227053895613
0.003188745822777941
0.003176293149724418
0.0031671931622624504
0.0031616558143095458
0.0031597976345559766
0.0031616558143135716
0.003167193162270483
0.0031762931497363936
0.0031887458227937136
0.003204227053915072
0.0032222756078491128
0.0032422746282957274
0.0032634458088539823
0.0032848648082530606
0.003524957839960163
0.0035061345819560894
0.0034874995718526766
0.0034698320963561843
0.0034538133590357525
0.003440005740535639
0.003428848463372476
0.0034206641444992658
0.0034156705262709053
0.003413992459937053
0.0034156705262751177
0.003420664144507667
0.0034288484633850096
0.0034400057405521785
0.003453813359056194
0.0034698320963804058
0.0034874995718805536
0.003506134581987498
0.0035249578399950063
0.003766283518356581
0.0037496329571954814
0.0037331703855583574
0.003717545323038559
0.003703343880164191
0.003691065904291025
0.003681114760064137
0.0036737961873001533
0.0036693223385425976
0.0036678174418834546
0.0036693223385469136
0.003673796187308766
0.00368111476007699
0.0036910659043080077
0.003703343880185207
0.0037175453230635152
0.0037331703855871486
0.0037496329572279967
0.0037662835183927437
0.004008747945004664
0.003993908915855898
0.003979294046285558
0.0039654387838035186
0.00395284005561047
0.003941933239528319
0.00393307886224158
0.00392655675456804
0.0039225650409556315
0.003921221464676699
0.0039225650409599605
0.003926556754576677
0.00393307886225447
0.003941933239545371
0.003952840055631615
0.003965438783828667
0.003979294046314624
0.003993908915888791
0.004008747945041328
0.004252239749379908
0.004238906999139846
0.004225854788831231
0.004213519760456328
0.004202317680804765
0.004192621399688123
0.004184746295308976
0.004178941795881813
0.0041753872491033855
0.004174190427105085
0.00417538724910772
0.004178941795890471
0.004184746295321922
0.004192621399705271
0.004202317680826049
0.0042135197604816765
0.0042258547888605795
0.004238906999173116
0.004252239749417058
0.004496641666733286
0.00448455953373622
0.004472823249222913
0.004461784994213365
0.004451788349634486
0.004443147911031762
0.004436134658576513
0.004430966251713432
0.004427801145854897
0.0044267353915140185
0.004427801145859243
0.004430966251722133
0.004436134658589523
0.0044431479110490085
0.004451788349655924
0.0044617849942389255
0.004472823249252549
0.0044845595337698755
0.004496641666770907
0.00474183814891283
0.0047307942790146
0.004720162870133626
0.004710224783243314
0.0047012605815617906
0.004693532148998522
0.004687268719188348
0.004682656877308539
0.004679833867944737
0.004678883479933741
0.004679833867949111
0.00468265687731728
0.004687268719201426
0.00469353214901588
0.004701260581583382
0.0047102247832691
0.004720162870163553
0.0047307942790486245
0.004741838148950916
0.004987720117522516
0.0049775394669224335
0.004967834266177598
0.004958825852391367
0.0049507406455720155
0.0049437939047669325
0.004938176846825036
0.004934046954073585
0.004931521105138563
0.0049306710897983365
0.004931521105142957
0.004934046954082375
0.004938176846838192
0.0049437939047844125
0.004950740645593776
0.0049588258524173754
0.0049678342662078144
0.0049775394669568235
0.004987720117561047
0.00523418768401446
0.00522472696376591
0.005215798096929694
0.0052075733038066795
0.005200233141673299
0.005193952391577075
0.005188888489424664
0.005185172501721729
0.005182902484993314
0.005182138991320476
0.005182902484997733
0.005185172501730574
0.005188888489437899
0.005193952391594679
0.00520023314169524
0.005207573303832916
0.005215798096960198
0.005224726963800664
0.00523418768405343
0.005481151450183313
0.0054722940990300575
0.005464016867128269
0.005456451899033773
0.005449741406330241
0.005444025587115604
0.00543943245083222
0.005436069659339682
0.00543401835938746
0.005433328906220446
0.005434018359391909
0.005436069659348588
0.0054394324508455485
0.005444025587133335
0.005449741406352355
0.005456451899060242
0.0054640168671590715
0.005472294099065161
0.005481151450222707
0.005728532843502261
0.005720184566290964
0.005712455969428157
0.005705446865847577
0.005699267797434457
0.005694029833724435
0.00568983577824759
0.005686772959064479
0.005684907665817638
0.005684281223991654
0.005684907665822122
0.005686772959073444
0.005689835778261022
0.005694029833742305
0.005699267797456753
0.005705446865874276
0.005712455969459253
0.00572018456632642
0.0057285328435420675
0.0059762638210775825
0.005968348694775678
0.005961084203396983
0.005954544374101519
0.0059488138999044945
0.005943979633891054
0.005940123105190793
0.005937314267428646
0.005935606594440655
0.005935033571755363
0.005935606594445171
0.005937314267437677
0.005940123105204324
0.005943979633909069
0.005948813899926978
0.00595454437412846
0.005961084203428356
0.005968348694811478
0.005976263821117788
0.006224286184356343
0.0062167433094463724
0.006209873941742884
0.0062037317858147974
0.006198380679937554
0.006193887589819883
0.0061903163269322655
0.006187722214638447
0.006186147845068409
0.00618562000956633
0.006186147845072958
0.006187722214647548
0.006190316326945895
0.006193887589838042
0.006198380679960224
0.00620373178584197
0.0062098739417745475
0.00621674330948251
0.006224286184396953
0.006472550677364559
0.006465331336658499
0.006458801067356154
0.006452997754912759
0.00644796860587038
0.006443764445172959
0.006440434511321887
0.006438021970564907
0.006436560304482166
0.0064360706717448155
0.0064365603044865575
0.0064380219705736964
0.006440434511335059
0.006443764445190502
0.006447968605892293
0.006452997754939035
0.006458801067386788
0.006465331336693476
0.006472550677403873
0.006721015989117418
0.006714081266853193
0.006707844769314389
0.006702332229879014
0.006697577746535985
0.00669361919514729
0.006690493969524026
0.006688235258281324
0.006686869013072353
0.006686411715690371
0.006686869013076418
0.006688235258289473
0.006690493969536242
0.006693619195163566
0.006697577746556315
0.006702332229903398
0.006707844769342837
0.0067140812668856804
0.0067210159891539405
0.0069696477420525
0.0069629665518373685
0.006956987259772127
0.006951726396414365
0.006947207853368828
0.0069434592381650735
0.0069405084289266335
0.006938380522170721
0.006937095321379788
0.0069366654730474726
0.006937095321383548
0.006938380522178236
0.0069405084289378876
0.006943459238180075
0.006947207853387575
0.0069517263964368635
0.006956987259798376
0.006962966551867352
0.006969647742086226
0.007218417519827693
0.007211964989190602
0.007206213454374362
0.007201172585526705
0.007196858429627794
0.007193290548604218
0.007190489264925574
0.007188473188681756
0.007187257162431906
0.007186850724880778
0.007187257162435348
0.007188473188688627
0.007190489264935881
0.007193290548617956
0.007196858429644973
0.007201172585547307
0.007206213454398412
0.0072119649892180785
0.007218417519858607
0.007467301967237194
0.00746105812808788
0.007455510644761318
0.007450664164102603
0.007446528788397835
0.007443117855193905
0.007440445759851361
0.007438525974496362
0.007437369385759729
0.007436983043652874
0.007437369385762857
0.007438525974502595
0.0074404457598607095
0.007443117855206373
0.007446528788413426
0.007450664164121322
0.0074555106447831655
0.007461058128112857
0.007467301967265287
0.0077162819804774225
0.007710230717679446
0.007704868181510963
0.007700195419004815
0.007696218100055451
0.007692944813976664
0.007690385366438172
0.007688549209910593
0.007687444114543856
0.007687075161231395
0.007687444114546664
0.007688549209916189
0.007690385366446574
0.0076929448139878695
0.007696218100069466
0.007700195419021641
0.00770486818153061
0.007710230717701905
0.007716281980502691
0.007965341996076682
0.007959470209796819
0.007954277178422503
0.00794976144138727
0.007945925429337723
0.007942774168181638
0.007940313960345951
0.00793855115527215
0.007937491099267063
0.007937137334733236
0.007937491099269544
0.007938551155277114
0.007940313960353402
0.00794277416819158
0.007945925429350163
0.007949761441402218
0.007954277178439956
0.007959470209816768
0.007965341996099131
0.008214469380378049
0.00820876632109991
0.008203730243550847
0.008199358014742262
0.008195649761911552
0.008192607890128416
0.00819023607172767
0.008188538295928924
0.008187518050223325
0.00818717769145451
0.008187518050225492
0.008188538295933254
0.008190236071734172
0.0081926078901371
0.008195649761922427
0.00819935801475532
0.008203730243566095
0.00820876632111735
0.008214469380397686
0.008463653917626272
0.00845811065488907
0.008453221238207851
0.008448981507949592
0.008445390020450068
0.008442447302598128
0.008440155090011352
0.008438515606760637
0.008437530937783289
0.008437202541010262
0.008437530937785145
0.008438515606764339
0.008440155090016912
0.008442447302605547
0.008445390020459369
0.008448981507960767
0.008453221238220903
0.008458110654904004
0.00846365391764309
0.008712887392593302
0.008707496378724902
0.008702745061915568
0.008698628773469674
0.008695145070954608
0.00869229317913077
0.008690073439090354
0.008688486781264932
0.008687534253865816
0.008687216647600951
0.008687534253867354
0.008688486781268006
0.008690073439094963
0.00869229317913694
0.00869514507096233
0.00869862877347895
0.008702745061926415
0.00870749637873732
0.008712887392607293
0.008962163262001641
0.00895691794980288
0.008952297459656519
0.008948297051809192
0.008944913721714636
0.008942145824162565
0.00893999272172362
0.008938454422448491
0.008937531231028832
0.008937223458565296
0.008937531231030058
0.00893845442245093
0.008939992721727286
0.008942145824167462
0.00894491372172078
0.008948297051816574
0.008952297459665167
0.00895691794981279
0.008962163262012818
0.009211476404723792
0.009206370876278458
0.00920187485143919
0.009197983888451083
0.009194694718956627
0.009192005133042894
0.009189913831302179
0.009188420193528477
0.009187524017651093
0.009187225287939853
0.009187524017651993
0.009188420193530285
0.009189913831304899
0.009192005133046521
0.00919469471896118
0.009197983888456577
0.009201874851445628
0.009206370876285853
0.00921147640473214
0.00946082292738746
0.00945585150980478
0.009451474204886907
0.009447687077506473
0.009444486737869275
0.00944187062503229
0.009439837025279103
0.009438384926375085
0.009437513810239629
0.009437223457229355
0.009437513810240213
0.009438384926376256
0.009439837025280867
0.009441870625034652
0.009444486737872248
0.00944768707751008
0.009451474204891142
0.009455851509809664
0.009460822927392979
0.009710199980980255
0.009705356948123104
0.009701093016759645
0.009697404626787084
0.009694288341934792
0.0096917414256898
0.009689761948440012
0.009688348687056756
0.009687500949596644
0.009687218402649973
0.009687500949596911
0.009688348687057305
0.009689761948440819
0.009691741425690896
0.00969428834193618
0.009697404626788801
0.00970109301676168
0.009705356948125476
0.009710199980982957
