# vtk DataFile Version 2.0
mesh vtk view
ASCII
DATASET UNSTRUCTURED_GRID
POINTS 861 double
0.0 0.0 0.0
385.0008556634638 -1.1318034342279355 0.0
385.000855663464 201.1318034342278 0.0
0.0 200.0 0.0
9.46716526503416 -0.35409338501020676 0.0
19.060551321437117 -0.557403495617612 0.0
28.692870056498094 -0.7100732525178799 0.0
38.33838958078867 -0.8229274303713103 0.0
47.98887150114323 -0.9084942028708793 0.0
57.640361579831996 -0.9734325421830315 0.0
67.29086014416384 -1.0225694500626357 0.0
76.93930580517842 -1.0594354886794062 0.0
86.58517929941404 -1.086749519091025 0.0
96.22828805101484 -1.1066438241044259 0.0
105.86864253922697 -1.1208099268173524 0.0
115.50637801884194 -1.130594408446043 0.0
125.14170275513547 -1.1370679903467662 0.0
134.77486281913022 -1.1410780049651548 0.0
144.40611801586354 -1.143290008299942 0.0
154.0357256428971 -1.1442216896704662 0.0
163.66392991174007 -1.1442709407100708 0.0
173.290955506838 -1.1437392438031915 0.0
182.91700415551446 -1.1428511665106986 0.0
192.54225335292958 -1.141770545874527 0.0
202.16685658464283 -1.1406138333668212 0.0
211.79094454290927 -1.1394610029306693 0.0
221.4146269550215 -1.1383643774557568 0.0
231.037994740101 -1.1373556911981328 0.0
240.66112228918513 -1.1364516715707418 0.0
250.28406972544295 -1.1356583912732816 0.0
259.9068850492457 -1.1349746104370266 0.0
269.5296061096563 -1.1343942985822266 0.0
279.1522623705838 -1.1339084981825278 0.0
288.7748764589317 -1.133506665933065 0.0
298.39746549526143 -1.133177604745004 0.0
308.0200422152532 -1.132910079251038 0.0
317.6426158940514 -1.132693190388958 0.0
327.265193085612 -1.1325165707860945 0.0
336.88777818517826 -1.1323704532171939 0.0
346.5103738134857 -1.1322456624258717 0.0
356.1329810027976 -1.1321335961499603 0.0
365.75559913545953 -1.1320263286371282 0.0
375.3782255884925 -1.1319172155227784 0.0
385.0007398703316 8.98140701397 0.0
385.00061947140233 19.094613961290207 0.0
385.00049724673244 29.207813153199254 0.0
385.00037905364957 39.321002787710164 0.0
385.00027065491935 49.43418309453377 0.0
385.00017676169176 59.54735541824847 0.0
385.00010084085227 69.6605215452976 0.0
385.00004523080906 79.77368329038133 0.0
385.00001136581807 89.88684229666283 0.0
385.0 99.99999999964332 0.0
385.00001136581807 110.1131577026238 0.0
385.00004523080906 120.22631670890537 0.0
385.00010084085227 130.33947845400814 0.0
385.0001767616918 140.45264458114085 0.0
385.0002706549194 150.56581690496347 0.0
385.0003790536497 160.67899721189477 0.0
385.0004972467325 170.79218684651346 0.0
385.0006194714024 180.90538603852133 0.0
385.00073987033164 191.0185929859336 0.0
375.3782255886137 201.13191721552266 0.0
365.7555991357017 201.132026328637 0.0
356.13298100316075 201.13213359614986 0.0
346.51037381396986 201.1322456624258 0.0
336.8877781857834 201.13237045321713 0.0
327.2651930863382 201.13251657078604 0.0
317.6426158948985 201.13269319038892 0.0
308.02004221622127 201.132910079251 0.0
298.39746549635055 201.13317760474496 0.0
288.77487646014174 201.133506665933 0.0
279.15226237191484 201.13390849818248 0.0
269.5296061111084 201.13439429858215 0.0
259.9068850508188 201.13497461043696 0.0
250.28406972713705 201.13565839127318 0.0
240.6611222909362 201.13645167157063 0.0
231.03799474183631 201.137355691198 0.0
221.41462695674107 201.13836437745562 0.0
211.79094454461318 201.13946100293052 0.0
202.16685658633105 201.14061383336667 0.0
192.54225335460222 201.14177054587438 0.0
182.91700415717142 201.14285116651058 0.0
173.2909555084793 201.1437392438031 0.0
163.66392991336576 201.14427094071007 0.0
154.03572564450738 201.1442216896706 0.0
144.4061180174583 201.14329000830026 0.0
134.77486282067312 201.1410780049657 0.0
125.14170275659444 201.13706799034762 0.0
115.50637802019457 201.13059440844722 0.0
105.8686425404615 201.12080992681894 0.0
96.22828805213118 201.10664382410644 0.0
86.58517930041211 201.0867495190935 0.0
76.93930580605812 201.05943548868237 0.0
67.29086014492513 201.02256945006604 0.0
57.64036158047475 200.97343254218686 0.0
47.98887150166869 200.908494202875 0.0
38.33838958121114 200.8229274303757 0.0
28.692870056818744 200.71007325252236 0.0
19.060551321651445 200.55740349562168 0.0
9.467165265138847 200.35409338501316 0.0
0.0 190.0000000000711 0.0
0.0 180.0000000001421 0.0
0.0 170.0000000002132 0.0
0.0 160.0000000002842 0.0
0.0 150.0000000003553 0.0
0.0 140.0000000004263 0.0
0.0 130.0000000004974 0.0
0.0 120.0000000005163 0.0
0.0 110.0000000005163 0.0
0.0 100.0000000005163 0.0
0.0 90.00000000051627 0.0
0.0 80.00000000051628 0.0
0.0 70.00000000049741 0.0
0.0 60.00000000042633 0.0
0.0 50.0000000003553 0.0
0.0 40.00000000028422 0.0
0.0 30.00000000021316 0.0
0.0 20.00000000014211 0.0
0.0 10.00000000007105 0.0
9.614541431480886 9.7679981417466 0.0
9.644070915908111 19.82358169208062 0.0
9.658200943573501 29.859365301459857 0.0
9.66507486583544 39.88694753245001 0.0
9.66896004593129 49.91005867135739 0.0
9.67125960483612 59.93046045341878 0.0
9.672659266194108 69.94911501404803 0.0
9.673494360638573 79.96664013444192 0.0
9.673939595641032 89.98348179244296 0.0
9.674079545188329 100.0000000004954 0.0
9.67393959565166 110.01651820854786 0.0
9.67349436065982 120.03335986654893 0.0
9.672659266225963 130.05088498690662 0.0
9.671259604878575 140.06953954739942 0.0
9.668960045984322 150.08994132932503 0.0
9.66507486589901 160.11305246809656 0.0
9.65820094364752 170.14063469895117 0.0
9.644070915992456 180.17641830819463 0.0
9.614541431575073 190.232001858393 0.0
19.19947902754669 9.552837112637645 0.0
19.268161960263637 19.649514911968417 0.0
19.29848040528299 29.719433639578956 0.0
19.314943634870115 39.77451980313711 0.0
19.32444291446253 49.82081278636135 0.0
19.33025081265351 59.86159165615574 0.0
19.333866499597423 69.89879220060257 0.0
19.33606585223084 79.93367935665538 0.0
19.3372543112204 89.9671696416677 0.0
19.337630534182725 100.00000000047434 0.0
19.33725431124188 110.03283035928114 0.0
19.336065852273762 120.06632064429364 0.0
19.333866499661784 130.1012078003118 0.0
19.330250812739294 140.13840834462778 0.0
19.32444291456968 150.1791872142926 0.0
19.314943634998535 160.2254801973875 0.0
19.298480405432546 170.28056636081638 0.0
19.268161960434075 180.3504850882973 0.0
19.19947902773801 190.44716288749763 0.0
28.806724842550015 9.399377928328166 0.0
28.882002846292487 19.503679259644343 0.0
28.926276470004037 29.59446553625036 0.0
28.952032360773075 39.671026571236425 0.0
28.96787802633764 49.7373799264009 0.0
28.97790496941577 59.796660082013354 0.0
28.98431093895725 69.85111335170495 0.0
28.98827630235651 79.90236176027315 0.0
28.990443673410763 89.9516476301352 0.0
28.99113363655203 100.00000000045328 0.0
28.990443673442737 110.0483523707715 0.0
28.988276302420434 120.09763824063376 0.0
28.984310939053085 130.14888664916884 0.0
28.977904969543495 140.20333991873508 0.0
28.967878026497182 150.2626200742243 0.0
28.95203236096435 160.32897342926557 0.0
28.926276470226906 170.40553446412852 0.0
28.88200284654695 180.49632074061046 0.0
28.806724842836708 190.60062207180152 0.0
38.42935136981002 9.284400169728668 0.0
38.49961850897561 19.39151700642249 0.0
38.548380074174766 29.49158469186237 0.0
38.58066781539983 39.582150950659674 0.0
38.60192120297152 49.66380609758554 0.0
38.61602587913144 59.738447935227384 0.0
38.625316969796174 69.80792369004908 0.0
38.63118754224479 79.87381341866175 0.0
38.6344367709364 89.93744983523868 0.0
38.6354773865815 100.00000000043208 0.0
38.63443677097844 110.06255016562562 0.0
38.6311875423288 120.12618658220283 0.0
38.625316969922146 130.19207631078373 0.0
38.61602587929938 140.26155206548572 0.0
38.601921203181334 150.33619390301038 0.0
38.58066781565148 160.41784904981907 0.0
38.54838007446827 170.5084153084991 0.0
38.499618509311176 180.6084829938207 0.0
38.429351370188456 190.71559983039492 0.0
48.06083482633721 9.198062037405295 0.0
48.122307842367846 19.30595800975899 0.0
48.16997646026507 29.410735780578197 0.0
48.20483403940202 39.50966722481528 0.0
48.22957423057479 49.60209329822977 0.0
48.246836307398866 59.68863652743382 0.0
48.25861013062474 69.77046487123422 0.0
48.26622228753305 79.84883869486411 0.0
48.27049538124239 89.92496959717504 0.0
48.2718731174955 100.00000000041076 0.0
48.27049538129463 110.07503040364652 0.0
48.266222287637454 120.15116130595783 0.0
48.258610130781314 130.2295351295573 0.0
48.24683630760757 140.3113634732434 0.0
48.229574230835645 150.39790670233643 0.0
48.20483403971505 160.49033277563979 0.0
48.16997646063039 170.58926421976554 0.0
48.122307842785816 180.69404199047216 0.0
48.06083482680849 190.8019379627121 0.0
57.69688715367078 9.132947311929296 0.0
57.74895981027769 19.241259899882795 0.0
57.792707453571246 29.348555266631 0.0
57.827230844764074 39.45260988110885 0.0
57.853353107990436 49.55234998432073 0.0
57.87249369383963 59.647711027014246 0.0
57.886012008214756 69.73925086461801 0.0
57.894963613756914 79.82782877310926 0.0
57.900063791838726 89.91441323294184 0.0
57.90171995656924 100.0000000003893 0.0
57.900063791902596 110.08558676783679 0.0
57.8949636138846 120.17217122766961 0.0
57.88601200840623 130.26074913613184 0.0
57.872493694095 140.35228897362694 0.0
57.85335310830969 150.4476500162154 0.0
57.827230845147284 160.54739011932213 0.0
57.79270745401863 170.65144473369477 0.0
57.7489598107896 180.7587401003362 0.0
57.696887154247825 190.86705268818181 0.0
67.33490080058557 9.084051940779698 0.0
67.37812992774624 19.192721546186462 0.0
67.4167985302999 29.30153464840545 0.0
67.44918907022986 39.40881561770907 0.0
67.47502203042268 49.513509611160465 0.0
67.49477970078622 59.61523909375961 0.0
67.50919566267724 69.71416360761057 0.0
67.51896368917912 79.81078718504358 0.0
67.52461098383438 89.90580409933362 0.0
67.52645784450453 100.00000000036763 0.0
67.52461098391 110.09419590140183 0.0
67.51896368933039 120.18921281569212 0.0
67.50919566290413 130.28583639309744 0.0
67.49477970108879 140.38476090684514 0.0
67.47502203080103 150.48649038934536 0.0
67.44918907068414 160.59118438269763 0.0
[...]
POINT_DATA 861
SCALARS CellEntityIds float 1
LOOKUP_TABLE default
0.0
0.009964891831447184
0.009964891831447099
0.0
0.00042382972050872806
0.0007236710356467099
0.0009854703565116841
0.0012283896847549362
0.001461967302239163
0.0016910088728364536
0.001918346200216671
0.0021456860107989745
0.0023740505011092643
0.0026040185186886884
0.002835876039557586
0.0030697156160739156
0.003305504667022537
0.0035431331711754687
0.0037824470547896953
0.0040232713338595955
0.004265425810118978
0.004508735338893786
0.004753036163806207
0.004998179440148089
0.00524403279076665
0.005490480526065825
0.005737422995948966
0.00598477541503776
0.006232466405344008
0.00648043642666661
0.006728636209485063
0.006977025264115874
0.0072255705101735065
0.007474245049389737
0.00772302709057401
0.007971899026372794
0.008220846656416047
0.008469858549779961
0.008718925541422867
0.008968040363312465
0.009217197423997481
0.009466392773175713
0.009715624297686609
0.009959605885429339
0.009954885379875643
0.009950729376614623
0.009947134644622732
0.009944097828547143
0.00994161615320939
0.009939687591630565
0.009938310805616362
0.009937485000302991
0.00993720977230258
0.009937485000302946
0.009938310805616274
0.009939687591630424
0.009941616153209218
0.009944097828546956
0.009947134644622553
0.009950729376614453
0.0099548853798755
0.009959605885429228
0.00971562429768966
0.009466392773181894
0.009217197424006798
0.008968040363324914
0.008718925541438454
0.008469858549798677
0.008220846656437885
0.007971899026397758
0.0077230270906021034
0.007474245049420953
0.0072255705102078375
0.0069770252641533186
0.006728636209525613
0.0064804364267102505
0.0062324664053890755
0.0059847754150823725
0.00573742299599312
0.005490480526109506
0.005244032790809833
0.004998179440190762
0.004753036163848345
0.004508735338935366
0.004265425810159981
0.004023271333900006
0.003782447054829479
0.0035431331712137
0.0033055046670584128
0.003069715616106911
0.002835876039587447
0.00260401851871546
0.0023740505011330135
0.002145686010819779
0.0019183462002346275
0.0016910088728516667
0.0014619673022517707
0.0012283896847653892
0.0009854703565201175
0.0007236710356530797
0.00042382972051285047
0.0
0.0
0.0
0.0
0.0
0.0
0.0
0.0
0.0
0.0
0.0
0.0
0.0
0.0
0.0
0.0
0.0
0.0
0.0
0.00029804500929811456
0.0002631715809855311
0.0002448533447978258
0.00023418077825865642
0.00022725779937114826
0.00022260335308516154
0.00021946139023788772
0.00021742975609004983
0.000216285717310558
0.00021591599524708923
0.00021628571731087452
0.0002174297560906929
0.00021946139023887112
0.00022260335308647657
0.00022725779937281533
0.0002341807782607117
0.0002448533448003408
0.0002631715809886216
0.0002980450093021277
0.0006074584445566385
0.0005375599687097838
0.0005005334955026646
0.0004777875230220723
0.0004630192077631434
0.0004530713088113361
0.0004463649207567584
0.00044203247926635124
0.0004395945663234055
0.0004388069552598632
0.0004395945663240631
0.00044203247926768633
0.0004463649207587996
0.00045307130881406865
0.0004630192077666094
0.00047778752302634323
0.0005005334955078482
0.0005375599687160274
0.0006074584445637579
0.0008850137699087522
0.0008103554514172678
0.000760365156955546
0.0007276618506666484
0.0007055481365702457
0.0006903879217352013
0.0006800651890718651
0.0006733613375250819
0.0006695781868602238
0.0006683544457511811
0.0006695781868612242
0.0006733613375271117
0.0006800651890749621
0.0006903879217393374
0.0007055481365754676
0.0007276618506730177
0.0007603651569631159
0.0008103554514259444
0.0008850137699179111
0.0011434309026810635
0.001072604288820785
0.0010189474755089778
0.0009801807424081367
0.0009526026409723819
0.000933085559907999
0.0009195476630077351
0.0009106568527568866
0.0009056077686693798
0.0009039698299492537
0.0009056077686707115
0.0009106568527595822
0.0009195476630118342
0.0009330855599134481
0.0009526026409792045
0.0009801807424163402
0.0010189474755184932
0.0010726042888313202
0.0011434309026919765
0.0013901783658994704
0.0013261899864439892
0.0012736556178035458
0.0012328277321015878
0.0012021308165474716
0.0011796118919184095
0.0011636157338825361
0.001152951394428266
0.0011468410316281346
0.0011448506230285133
0.001146841031629789
0.001152951394431608
0.0011636157338875944
0.001179611891925096
0.0012021308165557716
0.0012328277321114376
0.0012736556178147762
0.0013261899864562444
0.0013901783659121928
0.0016303094485324242
0.0015737044127123508
0.0015246442936450956
0.001484394563041004
0.0014527044268625633
0.0014286239118215464
0.0014110892836305207
0.0013992025978578012
0.0013923220757160423
0.001390069930235667
0.0013923220757180407
0.0013992025978618254
0.0014110892836365805
0.001428623911829525
0.0014527044268723985
0.0014843945630525746
0.0015246442936581819
0.001573704412726594
0.0016303094485473654
0.0018669398950321133
0.0018174080791983516
0.001772774417457033
0.0017346541151845333
0.0017035141713477207
0.001679119870907883
0.0016609393652020556
0.001648411437682567
0.0016410842076326117
0.001638673818720955
0.0016410842076349382
0.0016484114376872402
0.001660939365209067
0.0016791198709170836
0.0017035141713590124
0.001734654115197762
0.0017727744174719584
0.0018174080792146457
0.0018669398950493972
0.002102051006676435
0.0020589560954454625
0.0020189823229880294
0.0019837882379662875
0.001954195578046356
0.0019304225975681293
0.0019123438775481769
0.0018996994982095386
0.0018922322317179291
0.0018897640641781703
0.0018922322317205683
0.0018996994982148254
0.0019123438775560863
0.0019304225975784897
0.001954195578059052
0.00198378823798114
0.0020189823230048055
0.0020589560954638684
0.0021020510066961594
0.002336894592222741
0.0022995021335763203
0.0022640493333435153
0.002232102702160072
0.0022046274354682502
0.0021821034664037614
0.002164683843163263
0.002152343655518733
0.002144993614800577
0.002142553847717009
0.002144993614803515
0.002152343655524607
0.002164683843172032
0.0021821034664152466
0.002204627435482321
0.00223210270217655
0.0022640493333621766
0.0022995021335969084
0.002336894592244999
0.002572244696436904
0.0025398193472170026
0.002508563658416488
0.002479895437361283
0.00245480389689648
0.002433900804040788
0.002417512422743422
0.0024057789743143444
0.00239873981823861
0.002396394750899736
0.002398739818241836
0.002405778974320786
0.002417512422753028
0.0024339008040533752
0.002454803896911918
0.0024798954373793976
0.0025085636584370767
0.002539819347239841
0.00257224469646178
0.0028085550762726908
0.0027804047941154836
0.0027529397395243257
0.002727410304019443
0.0027047637344983803
0.002685659297477712
0.0026705176936695748
0.002659583664783389
0.002652985359759464
0.0026507805717114275
0.00265298535976297
0.0026595836647903886
0.0026705176936800057
0.0026856592974913965
0.002704763734515195
0.0027274103040392235
0.0027529397395468854
0.0027804047941406324
0.002808555076300248
0.0030460638001660535
0.003021559122014823
0.0029974530991671014
0.002974828573430767
0.0029545562659464087
0.002937290058533298
0.002923489550942957
0.0029134565215017056
0.002907373499643366
0.0029053360115557404
0.002907373499647152
0.0029134565215092516
0.002923489550954203
0.002937290058548084
0.002954556265964612
0.0029748285734522376
0.0029974530991916763
0.0030215591220423286
0.003046063800196348
0.0032848648082202526
0.003263445808824315
0.003242274628269319
0.003222275607826105
0.003204227053895613
0.003188745822777941
0.003176293149724418
0.0031671931622624504
0.0031616558143095458
0.0031597976345559766
0.0031616558143135716
0.003167193162270483
0.0031762931497363936
0.0031887458227937136
0.003204227053915072
0.0032222756078491128
0.0032422746282957274
0.0032634458088539823
0.0032848648082530606
0.003524957839960163
0.0035061345819560894
0.0034874995718526766
0.0034698320963561843
0.0034538133590357525
0.003440005740535639
0.003428848463372476
0.0034206641444992658
0.0034156705262709053
0.003413992459937053
0.0034156705262751177
0.003420664144507667
0.0034288484633850096
0.0034400057405521785
0.003453813359056194
0.0034698320963804058
0.0034874995718805536
0.003506134581987498
0.0035249578399950063
0.003766283518356581
0.0037496329571954814
0.0037331703855583574
0.003717545323038559
0.003703343880164191
0.003691065904291025
0.003681114760064137
0.0036737961873001533
0.0036693223385425976
0.0036678174418834546
0.0036693223385469136
0.003673796187308766
0.00368111476007699
0.0036910659043080077
0.003703343880185207
0.0037175453230635152
0.0037331703855871486
0.0037496329572279967
0.0037662835183927437
0.004008747945004664
0.003993908915855898
0.003979294046285558
0.0039654387838035186
0.00395284005561047
0.003941933239528319
0.00393307886224158
0.00392655675456804
0.0039225650409556315
0.003921221464676699
0.0039225650409599605
0.003926556754576677
0.00393307886225447
0.003941933239545371
0.003952840055631615
0.003965438783828667
0.003979294046314624
0.003993908915888791
0.004008747945041328
0.004252239749379908
0.004238906999139846
0.004225854788831231
0.004213519760456328
0.004202317680804765
0.004192621399688123
0.004184746295308976
0.004178941795881813
0.0041753872491033855
0.004174190427105085
0.00417538724910772
0.004178941795890471
0.004184746295321922
0.004192621399705271
0.004202317680826049
0.0042135197604816765
0.0042258547888605795
0.004238906999173116
0.004252239749417058
0.004496641666733286
0.00448455953373622
0.004472823249222913
0.004461784994213365
0.004451788349634486
0.004443147911031762
0.004436134658576513
0.004430966251713432
0.004427801145854897
0.0044267353915140185
0.004427801145859243
0.004430966251722133
0.004436134658589523
0.0044431479110490085
0.004451788349655924
0.0044617849942389255
0.004472823249252549
0.0044845595337698755
0.004496641666770907
0.00474183814891283
0.0047307942790146
0.004720162870133626
0.004710224783243314
0.0047012605815617906
0.004693532148998522
0.004687268719188348
0.004682656877308539
0.004679833867944737
0.004678883479933741
0.004679833867949111
0.00468265687731728
0.004687268719201426
0.00469353214901588
0.004701260581583382
0.0047102247832691
0.004720162870163553
0.0047307942790486245
0.004741838148950916
0.004987720117522516
0.0049775394669224335
0.004967834266177598
0.004958825852391367
0.0049507406455720155
0.0049437939047669325
0.004938176846825036
0.004934046954073585
0.004931521105138563
0.0049306710897983365
0.004931521105142957
0.004934046954082375
0.004938176846838192
0.0049437939047844125
0.004950740645593776
0.0049588258524173754
0.0049678342662078144
0.0049775394669568235
0.004987720117561047
0.00523418768401446
0.00522472696376591
0.005215798096929694
0.0052075733038066795
0.005200233141673299
0.005193952391577075
0.005188888489424664
0.005185172501721729
0.005182902484993314
0.005182138991320476
0.005182902484997733
0.005185172501730574
0.005188888489437899
0.005193952391594679
0.00520023314169524
0.005207573303832916
0.005215798096960198
0.005224726963800664
0.00523418768405343
0.005481151450183313
0.0054722940990300575
0.005464016867128269
0.005456451899033773
0.005449741406330241
0.005444025587115604
0.00543943245083222
0.005436069659339682
0.00543401835938746
0.005433328906220446
0.005434018359391909
0.005436069659348588
0.0054394324508455485
0.005444025587133335
0.005449741406352355
0.005456451899060242
0.0054640168671590715
0.005472294099065161
0.005481151450222707
0.005728532843502261
0.005720184566290964
0.005712455969428157
0.005705446865847577
0.005699267797434457
0.005694029833724435
0.00568983577824759
0.005686772959064479
0.005684907665817638
0.005684281223991654
0.005684907665822122
0.005686772959073444
0.005689835778261022
0.005694029833742305
0.005699267797456753
0.005705446865874276
0.005712455969459253
0.00572018456632642
0.0057285328435420675
0.0059762638210775825
0.005968348694775678
0.005961084203396983
0.005954544374101519
0.0059488138999044945
0.005943979633891054
0.005940123105190793
0.005937314267428646
0.005935606594440655
0.005935033571755363
0.005935606594445171
0.005937314267437677
0.005940123105204324
0.005943979633909069
0.005948813899926978
0.00595454437412846
0.005961084203428356
0.005968348694811478
0.005976263821117788
0.006224286184356343
0.0062167433094463724
0.006209873941742884
0.0062037317858147974
0.006198380679937554
0.006193887589819883
0.0061903163269322655
0.006187722214638447
0.006186147845068409
0.00618562000956633
0.006186147845072958
0.006187722214647548
0.006190316326945895
0.006193887589838042
0.006198380679960224
0.00620373178584197
0.0062098739417745475
0.00621674330948251
0.006224286184396953
0.006472550677364559
0.006465331336658499
0.006458801067356154
0.006452997754912759
0.00644796860587038
0.006443764445172959
0.006440434511321887
0.006438021970564907
0.006436560304482166
0.0064360706717448155
0.0064365603044865575
0.0064380219705736964
0.006440434511335059
0.006443764445190502
0.006447968605892293
0.006452997754939035
0.006458801067386788
0.006465331336693476
0.006472550677403873
0.006721015989117418
0.006714081266853193
0.006707844769314389
0.006702332229879014
0.006697577746535985
0.00669361919514729
0.006690493969524026
0.006688235258281324
0.006686869013072353
0.006686411715690371
0.006686869013076418
0.006688235258289473
0.006690493969536242
0.006693619195163566
0.006697577746556315
0.006702332229903398
0.006707844769342837
0.0067140812668856804
0.0067210159891539405
0.0069696477420525
0.0069629665518373685
0.006956987259772127
0.006951726396414365
0.006947207853368828
0.0069434592381650735
0.0069405084289266335
0.006938380522170721
0.006937095321379788
0.0069366654730474726
0.006937095321383548
0.006938380522178236
0.0069405084289378876
0.006943459238180075
0.006947207853387575
0.0069517263964368635
0.006956987259798376
0.006962966551867352
0.006969647742086226
0.007218417519827693
0.007211964989190602
0.007206213454374362
0.007201172585526705
0.007196858429627794
0.007193290548604218
0.007190489264925574
0.007188473188681756
0.007187257162431906
0.007186850724880778
0.007187257162435348
0.007188473188688627
0.007190489264935881
0.007193290548617956
0.007196858429644973
0.007201172585547307
0.007206213454398412
0.0072119649892180785
0.007218417519858607
0.007467301967237194
0.00746105812808788
0.007455510644761318
0.007450664164102603
0.007446528788397835
0.007443117855193905
0.007440445759851361
0.007438525974496362
0.007437369385759729
0.007436983043652874
0.007437369385762857
0.007438525974502595
0.0074404457598607095
0.007443117855206373
0.007446528788413426
0.007450664164121322
0.0074555106447831655
0.007461058128112857
0.007467301967265287
0.0077162819804774225
0.007710230717679446
0.007704868181510963
0.007700195419004815
0.007696218100055451
0.007692944813976664
0.007690385366438172
0.007688549209910593
0.007687444114543856
0.007687075161231395
0.007687444114546664
0.007688549209916189
0.007690385366446574
0.0076929448139878695
0.007696218100069466
0.007700195419021641
0.00770486818153061
0.007710230717701905
0.007716281980502691
0.007965341996076682
0.007959470209796819
0.007954277178422503
0.00794976144138727
0.007945925429337723
0.007942774168181638
0.007940313960345951
0.00793855115527215
0.007937491099267063
0.007937137334733236
0.007937491099269544
0.007938551155277114
0.007940313960353402
0.00794277416819158
0.007945925429350163
0.007949761441402218
0.007954277178439956
0.007959470209816768
0.007965341996099131
0.008214469380378049
0.00820876632109991
0.008203730243550847
0.008199358014742262
0.008195649761911552
0.008192607890128416
0.00819023607172767
0.008188538295928924
0.008187518050223325
0.00818717769145451
0.008187518050225492
0.008188538295933254
0.008190236071734172
0.0081926078901371
0.008195649761922427
0.00819935801475532
0.008203730243566095
0.00820876632111735
0.008214469380397686
0.008463653917626272
0.00845811065488907
0.008453221238207851
0.008448981507949592
0.008445390020450068
0.008442447302598128
0.008440155090011352
0.008438515606760637
0.008437530937783289
0.008437202541010262
0.008437530937785145
0.008438515606764339
0.008440155090016912
0.008442447302605547
0.008445390020459369
0.008448981507960767
0.008453221238220903
0.008458110654904004
0.00846365391764309
0.008712887392593302
0.008707496378724902
0.008702745061915568
0.008698628773469674
0.008695145070954608
0.00869229317913077
0.008690073439090354
0.008688486781264932
0.008687534253865816
0.008687216647600951
0.008687534253867354
0.008688486781268006
0.008690073439094963
0.00869229317913694
0.00869514507096233
0.00869862877347895
0.008702745061926415
0.00870749637873732
0.008712887392607293
0.008962163262001641
0.00895691794980288
0.008952297459656519
0.008948297051809192
0.008944913721714636
0.008942145824162565
0.00893999272172362
0.008938454422448491
0.008937531231028832
0.008937223458565296
0.008937531231030058
0.00893845442245093
0.008939992721727286
0.008942145824167462
0.00894491372172078
0.008948297051816574
0.008952297459665167
0.00895691794981279
0.008962163262012818
0.009211476404723792
0.009206370876278458
0.00920187485143919
0.009197983888451083
0.009194694718956627
0.009192005133042894
0.009189913831302179
0.009188420193528477
0.009187524017651093
0.009187225287939853
0.009187524017651993
0.009188420193530285
0.009189913831304899
0.009192005133046521
0.00919469471896118
0.009197983888456577
0.009201874851445628
0.009206370876285853
0.00921147640473214
0.00946082292738746
0.00945585150980478
0.009451474204886907
0.009447687077506473
0.009444486737869275
0.00944187062503229
0.009439837025279103
0.009438384926375085
0.009437513810239629
0.009437223457229355
0.009437513810240213
0.009438384926376256
0.009439837025280867
0.009441870625034652
0.009444486737872248
0.00944768707751008
0.009451474204891142
0.009455851509809664
0.009460822927392979
0.009710199980980255
0.009705356948123104
0.009701093016759645
0.009697404626787084
0.009694288341934792
0.0096917414256898
0.009689761948440012
0.009688348687056756
0.009687500949596644
0.009687218402649973
0.009687500949596911
0.009688348687057305
0.009689761948440819
0.009691741425690896
0.00969428834193618
0.009697404626788801
0.00970109301676168
0.009705356948125476
0.009710199980982957
