# vtk DataFile Version 2.0
mesh vtk view
ASCII
DATASET UNSTRUCTURED_GRID
POINTS 861 double
0.0 0.0 0.0
370.0017113269277 -2.263606868455871 0.0
370.00171132692793 202.2636068684556 0.0
0.0 200.0 0.0
8.934330530107472 -0.7081867700204135 0.0
18.12110264295521 -1.114806991235224 0.0
27.385740113115734 -1.4201465050357598 0.0
36.67677916173103 -1.6458548607426207 0.0
45.97774300247567 -1.8169884057417587 0.0
55.28072315990367 -1.946865084366063 0.0
64.58172028861928 -2.0451389001252713 0.0
73.87861161070032 -2.1188709773588124 0.0
83.17035859922342 -2.17349903818205 0.0
92.45657610247693 -2.2132876482088517 0.0
101.73728507895305 -2.2416198536347047 0.0
111.01275603823488 -2.261188816892086 0.0
120.28340551086163 -2.2741359806935324 0.0
129.5497256388675 -2.2821560099303095 0.0
138.81223603235048 -2.286580016599884 0.0
148.07145128643396 -2.2884433793409324 0.0
157.32785982413625 -2.2885418814201417 0.0
166.5819110143485 -2.287478487606383 0.0
175.8340083117178 -2.2857023330213972 0.0
185.08450670656447 -2.283541091749054 0.0
194.3337131700073 -2.2812276667336424 0.0
203.58188908655654 -2.2789220058613386 0.0
212.82925391079732 -2.2767287549115136 0.0
222.07598948097274 -2.2747113823962657 0.0
231.32224457915737 -2.2729033431414836 0.0
240.5681394516515 -2.271316782546563 0.0
249.8137700992024 -2.2699492208740533 0.0
259.05921221996886 -2.2687885971644532 0.0
268.3045247417691 -2.2678169963650556 0.0
277.5497529184104 -2.26701333186613 0.0
286.7949309910151 -2.266355209490008 0.0
296.040084430944 -2.265820158502076 0.0
305.2852317884856 -2.265386380777916 0.0
314.53038617155215 -2.265033141572189 0.0
323.77555637063 -2.2647409064343877 0.0
333.02074762719025 -2.2644913248517433 0.0
342.2659620057592 -2.2642671922999207 0.0
351.51119827102843 -2.2640526572742563 0.0
360.7564511770397 -2.2638344310455567 0.0
370.00147974066317 7.962814027980488 0.0
370.0012389428046 18.18922792265726 0.0
370.0009944934648 28.415626306518348 0.0
370.0007581072992 38.642005575592066 0.0
370.0005413098387 48.86836618929118 0.0
370.0003535233836 59.09471083677245 0.0
370.0002016817045 69.32104309089874 0.0
370.0000904616181 79.54736658108254 0.0
370.00002273163614 89.77368459366194 0.0
370.0 99.99999999963927 0.0
370.00002273163614 110.22631540561659 0.0
370.00009046161813 120.45263341819604 0.0
370.00020168170454 130.6789569083991 0.0
370.0003535233837 140.9052891626099 0.0
370.0005413098388 151.1316338102003 0.0
370.0007581072993 161.35799442400833 0.0
370.000994493465 171.58437369319103 0.0
370.0012389428048 181.81077207715202 0.0
370.00147974066334 192.0371859719219 0.0
360.75645117715624 202.26383443104532 0.0
351.51119827126126 202.26405265727405 0.0
342.26596200610834 202.26426719229974 0.0
333.0207476276555 202.26449132485158 0.0
323.7755563712115 202.26474090643424 0.0
314.53038617224996 202.26503314157208 0.0
305.28523178929953 202.2653863807778 0.0
296.04008443187416 202.26582015850198 0.0
286.79493099206155 202.26635520948992 0.0
277.549752919573 202.26701333186602 0.0
268.3045247430481 202.26781699636493 0.0
259.0592122213642 202.2687885971643 0.0
249.8137701007139 202.26994922087388 0.0
240.5681394532793 202.27131678254636 0.0
231.32224458083988 202.27290334314122 0.0
222.07598948264015 202.274711382396 0.0
212.82925391244964 202.2767287549112 0.0
203.58188908819386 202.27892200586103 0.0
194.3337131716296 202.28122766673332 0.0
185.08450670817192 202.28354109174876 0.0
175.83400831331033 202.28570233302116 0.0
166.58191101592612 202.28747848760622 0.0
157.32785982569905 202.28854188142014 0.0
148.0714512879822 202.2884433793412 0.0
138.81223603388403 202.2865800166005 0.0
129.54972564035148 202.28215600993138 0.0
120.28340551226518 202.2741359806952 0.0
111.01275603953646 202.26118881689447 0.0
101.73728508014129 202.24161985363787 0.0
92.45657610355174 202.21328764821288 0.0
83.17035860018467 202.173499038187 0.0
73.87861161154781 202.1188709773647 0.0
64.58172028935289 202.04513890013212 0.0
55.28072316052317 201.9468650843737 0.0
45.97774300298211 201.81698840575004 0.0
36.67677916213807 201.6458548607514 0.0
27.385740113424333 201.4201465050447 0.0
18.121102643160782 201.1148069912434 0.0
8.934330530206642 200.7081867700263 0.0
0.0 190.0000000000711 0.0
0.0 180.0000000001421 0.0
0.0 170.0000000002132 0.0
0.0 160.0000000002842 0.0
0.0 150.0000000003553 0.0
0.0 140.0000000004263 0.0
0.0 130.0000000004974 0.0
0.0 120.0000000005163 0.0
0.0 110.0000000005163 0.0
0.0 100.0000000005163 0.0
0.0 90.00000000051627 0.0
0.0 80.00000000051628 0.0
0.0 70.00000000049741 0.0
0.0 60.00000000042633 0.0
0.0 50.0000000003553 0.0
0.0 40.00000000028422 0.0
0.0 30.00000000021316 0.0
0.0 20.00000000014211 0.0
0.0 10.00000000007105 0.0
9.229082862995414 9.53599628342493 0.0
9.288141831844355 19.647163384024598 0.0
9.316401887169624 29.718730602714878 0.0
9.330149731687992 39.7738950646272 0.0
9.337920091874182 49.82011734237395 0.0
9.342519209678333 59.86092090642878 0.0
9.3453185323888 69.89823002761871 0.0
9.346988721272218 79.93328026838846 0.0
9.347879191271627 89.96696358439095 0.0
9.348159090360708 100.00000000049623 0.0
9.347879191281859 110.03303641660155 0.0
9.34698872129267 120.06671973260417 0.0
9.345318532419448 130.10176997333787 0.0
9.342519209719162 140.13907909439132 0.0
9.337920091925145 150.17988265831045 0.0
9.33014973174901 160.22610493592148 0.0
9.316401887240522 170.28126939769857 0.0
9.288141831924882 180.35283661625346 0.0
9.229082863084606 190.46400371671814 0.0
18.398958055163206 9.10567422520981 0.0
18.53632392058594 19.299029823805665 0.0
18.596960810613503 29.438867278961403 0.0
18.629887269776603 39.5490396060128 0.0
18.648885828950274 49.64162557239635 0.0
18.660501625321086 59.72318331192023 0.0
18.667732999197746 69.7975844007478 0.0
18.672131704453417 79.86735871283632 0.0
18.6745086224214 89.93433928286173 0.0
18.67526106833489 100.00000000047591 0.0
18.674508622442044 110.06566071809026 0.0
18.672131704494653 120.13264128811609 0.0
18.66773299925954 130.2024156001702 0.0
18.66050162540341 140.27681668886692 0.0
18.648885829053018 150.3583744282614 0.0
18.629887269899584 160.4509603945159 0.0
18.596960810756443 170.56113272143847 0.0
18.536323920748345 180.7009701764651 0.0
18.398958055345062 190.89432577493054 0.0
27.613449685202944 8.79875585659364 0.0
27.76400569267125 19.007358519162995 0.0
27.852552940077704 29.188931072312542 0.0
27.90406472159916 39.342053142222824 0.0
27.935756052711646 49.47475985248991 0.0
27.955809938851278 59.593320163653026 0.0
27.968621877917613 69.70222670297257 0.0
27.976552604699485 79.80472352009274 0.0
27.980887346791356 89.90329525981807 0.0
27.982267273057246 100.00000000045546 0.0
27.98088734682203 110.09670474109308 0.0
27.976552604760787 120.1952764808189 0.0
27.96862187800946 130.2977732979063 0.0
27.955809938973637 140.40667983710048 0.0
27.93575605286438 150.52524014814048 0.0
27.90406472178208 160.65794685828467 0.0
27.852552940290547 170.81106892807216 0.0
27.764005692914004 180.9926414810977 0.0
27.613449685476887 191.20124414354146 0.0
36.85870273975184 8.568800339397434 0.0
36.99923701806111 18.783034012724773 0.0
37.09676014843754 28.98316938354489 0.0
37.16133563086574 39.164301901080734 0.0
37.20384240598723 49.32761219487367 0.0
37.2320517582852 59.476895870098616 0.0
37.25063393959276 69.61584737968086 0.0
37.2623750844681 79.74762683689082 0.0
37.26887354182943 89.87489967004635 0.0
37.27095477309773 100.00000000043478 0.0
37.2688735418697 110.12510033082344 0.0
37.26237508454855 120.25237316397957 0.0
37.25063393971334 130.3841526211581 0.0
37.232051758445905 140.52310413062054 0.0
37.203842406187924 150.67238780572836 0.0
37.16133563110631 160.8356980994042 0.0
37.096760148718005 171.01683061682283 0.0
36.99923701838194 181.2169659875244 0.0
36.85870274011457 191.43119966073144 0.0
46.12166965283638 8.39612407475348 0.0
46.244615684870446 18.61191601940324 0.0
46.33995292063766 28.821471560984854 0.0
46.40966807888435 39.019334449403345 0.0
46.45914846120265 49.2041865961766 0.0
46.49367261482357 59.37727305452906 0.0
46.51722026124811 69.54092974207119 0.0
46.5324445750375 79.69767738931645 0.0
46.54099076242897 89.84993919394036 0.0
46.54374623490796 100.00000000041382 0.0
46.54099076247897 110.15006080688744 0.0
46.53244457513742 120.30232261151205 0.0
46.517220261397895 130.4590702587272 0.0
46.493672615023215 140.6227269461548 0.0
46.45914846145214 150.79581340439614 0.0
46.40966807918372 160.98066555105814 0.0
46.33995292098716 171.1785284393651 0.0
46.244615685270794 181.3880839808336 0.0
46.121669653288926 191.60387592536884 0.0
55.39377430754796 8.265894623804272 0.0
55.49791962072846 18.482519799656316 0.0
55.585414907282285 28.69711053309878 0.0
55.654461689634644 38.90521976200187 0.0
55.70670621605406 49.104699968373005 0.0
55.74498738771915 59.29542205370744 0.0
55.772024016436085 69.47850172885876 0.0
55.789927227487105 79.65565754582767 0.0
55.80012758361744 89.82882646549528 0.0
55.80343991304515 100.00000000039262 0.0
55.80012758367857 110.17117353529007 0.0
55.78992722760926 120.34434245495824 0.0
55.77202401661924 130.52149827189837 0.0
55.744987387963455 140.70457794694067 0.0
55.70670621635954 150.89530003216976 0.0
55.65446169000145 161.09478023843548 0.0
55.58541490771083 171.30288946723294 0.0
55.497919621219495 181.51748020056806 0.0
55.39377430810263 191.73410537631145 0.0
64.66980160142332 8.168103881507868 0.0
64.75625985570517 18.385443092269124 0.0
64.83359706077303 28.60306929665601 0.0
64.89837814059354 38.81763123521371 0.0
64.9500440609397 49.02701922206694 0.0
64.98955940162732 59.2304781872157 0.0
65.01839132536993 69.42832721486393 0.0
65.03792737833423 79.62157436971721 0.0
65.0492219676053 89.81160819830018 0.0
65.05291568890618 100.00000000037109 0.0
65.04922196767768 110.18839180244227 0.0
65.03792737847898 120.37842563102572 0.0
65.01839132558703 130.57167278585152 0.0
64.9895594019169 140.76952181339598 0.0
64.95004406130195 150.97298077844542 0.0
64.89837814102873 161.1823687651991 0.0
[...]
POINT_DATA 861
SCALARS CellEntityIds float 1
LOOKUP_TABLE default
0.0
0.009964891831447184
0.009964891831447099
0.0
0.00042382972050872806
0.0007236710356467099
0.0009854703565116841
0.0012283896847549362
0.001461967302239163
0.0016910088728364536
0.001918346200216671
0.0021456860107989745
0.0023740505011092643
0.0026040185186886884
0.002835876039557586
0.0030697156160739156
0.003305504667022537
0.0035431331711754687
0.0037824470547896953
0.0040232713338595955
0.004265425810118978
0.004508735338893786
0.004753036163806207
0.004998179440148089
0.00524403279076665
0.005490480526065825
0.005737422995948966
0.00598477541503776
0.006232466405344008
0.00648043642666661
0.006728636209485063
0.006977025264115874
0.0072255705101735065
0.007474245049389737
0.00772302709057401
0.007971899026372794
0.008220846656416047
0.008469858549779961
0.008718925541422867
0.008968040363312465
0.009217197423997481
0.009466392773175713
0.009715624297686609
0.009959605885429339
0.009954885379875643
0.009950729376614623
0.009947134644622732
0.009944097828547143
0.00994161615320939
0.009939687591630565
0.009938310805616362
0.009937485000302991
0.00993720977230258
0.009937485000302946
0.009938310805616274
0.009939687591630424
0.009941616153209218
0.009944097828546956
0.009947134644622553
0.009950729376614453
0.0099548853798755
0.009959605885429228
0.00971562429768966
0.009466392773181894
0.009217197424006798
0.008968040363324914
0.008718925541438454
0.008469858549798677
0.008220846656437885
0.007971899026397758
0.0077230270906021034
0.007474245049420953
0.0072255705102078375
0.0069770252641533186
0.006728636209525613
0.0064804364267102505
0.0062324664053890755
0.0059847754150823725
0.00573742299599312
0.005490480526109506
0.005244032790809833
0.004998179440190762
0.004753036163848345
0.004508735338935366
0.004265425810159981
0.004023271333900006
0.003782447054829479
0.0035431331712137
0.0033055046670584128
0.003069715616106911
0.002835876039587447
0.00260401851871546
0.0023740505011330135
0.002145686010819779
0.0019183462002346275
0.0016910088728516667
0.0014619673022517707
0.0012283896847653892
0.0009854703565201175
0.0007236710356530797
0.00042382972051285047
0.0
0.0
0.0
0.0
0.0
0.0
0.0
0.0
0.0
0.0
0.0
0.0
0.0
0.0
0.0
0.0
0.0
0.0
0.0
0.00029804500929811456
0.0002631715809855311
0.0002448533447978258
0.00023418077825865642
0.00022725779937114826
0.00022260335308516154
0.00021946139023788772
0.00021742975609004983
0.000216285717310558
0.00021591599524708923
0.00021628571731087452
0.0002174297560906929
0.00021946139023887112
0.00022260335308647657
0.00022725779937281533
0.0002341807782607117
0.0002448533448003408
0.0002631715809886216
0.0002980450093021277
0.0006074584445566385
0.0005375599687097838
0.0005005334955026646
0.0004777875230220723
0.0004630192077631434
0.0004530713088113361
0.0004463649207567584
0.00044203247926635124
0.0004395945663234055
0.0004388069552598632
0.0004395945663240631
0.00044203247926768633
0.0004463649207587996
0.00045307130881406865
0.0004630192077666094
0.00047778752302634323
0.0005005334955078482
0.0005375599687160274
0.0006074584445637579
0.0008850137699087522
0.0008103554514172678
0.000760365156955546
0.0007276618506666484
0.0007055481365702457
0.0006903879217352013
0.0006800651890718651
0.0006733613375250819
0.0006695781868602238
0.0006683544457511811
0.0006695781868612242
0.0006733613375271117
0.0006800651890749621
0.0006903879217393374
0.0007055481365754676
0.0007276618506730177
0.0007603651569631159
0.0008103554514259444
0.0008850137699179111
0.0011434309026810635
0.001072604288820785
0.0010189474755089778
0.0009801807424081367
0.0009526026409723819
0.000933085559907999
0.0009195476630077351
0.0009106568527568866
0.0009056077686693798
0.0009039698299492537
0.0009056077686707115
0.0009106568527595822
0.0009195476630118342
0.0009330855599134481
0.0009526026409792045
0.0009801807424163402
0.0010189474755184932
0.0010726042888313202
0.0011434309026919765
0.0013901783658994704
0.0013261899864439892
0.0012736556178035458
0.0012328277321015878
0.0012021308165474716
0.0011796118919184095
0.0011636157338825361
0.001152951394428266
0.0011468410316281346
0.0011448506230285133
0.001146841031629789
0.001152951394431608
0.0011636157338875944
0.001179611891925096
0.0012021308165557716
0.0012328277321114376
0.0012736556178147762
0.0013261899864562444
0.0013901783659121928
0.0016303094485324242
0.0015737044127123508
0.0015246442936450956
0.001484394563041004
0.0014527044268625633
0.0014286239118215464
0.0014110892836305207
0.0013992025978578012
0.0013923220757160423
0.001390069930235667
0.0013923220757180407
0.0013992025978618254
0.0014110892836365805
0.001428623911829525
0.0014527044268723985
0.0014843945630525746
0.0015246442936581819
0.001573704412726594
0.0016303094485473654
0.0018669398950321133
0.0018174080791983516
0.001772774417457033
0.0017346541151845333
0.0017035141713477207
0.001679119870907883
0.0016609393652020556
0.001648411437682567
0.0016410842076326117
0.001638673818720955
0.0016410842076349382
0.0016484114376872402
0.001660939365209067
0.0016791198709170836
0.0017035141713590124
0.001734654115197762
0.0017727744174719584
0.0018174080792146457
0.0018669398950493972
0.002102051006676435
0.0020589560954454625
0.0020189823229880294
0.0019837882379662875
0.001954195578046356
0.0019304225975681293
0.0019123438775481769
0.0018996994982095386
0.0018922322317179291
0.0018897640641781703
0.0018922322317205683
0.0018996994982148254
0.0019123438775560863
0.0019304225975784897
0.001954195578059052
0.00198378823798114
0.0020189823230048055
0.0020589560954638684
0.0021020510066961594
0.002336894592222741
0.0022995021335763203
0.0022640493333435153
0.002232102702160072
0.0022046274354682502
0.0021821034664037614
0.002164683843163263
0.002152343655518733
0.002144993614800577
0.002142553847717009
0.002144993614803515
0.002152343655524607
0.002164683843172032
0.0021821034664152466
0.002204627435482321
0.00223210270217655
0.0022640493333621766
0.0022995021335969084
0.002336894592244999
0.002572244696436904
0.0025398193472170026
0.002508563658416488
0.002479895437361283
0.00245480389689648
0.002433900804040788
0.002417512422743422
0.0024057789743143444
0.00239873981823861
0.002396394750899736
0.002398739818241836
0.002405778974320786
0.002417512422753028
0.0024339008040533752
0.002454803896911918
0.0024798954373793976
0.0025085636584370767
0.002539819347239841
0.00257224469646178
0.0028085550762726908
0.0027804047941154836
0.0027529397395243257
0.002727410304019443
0.0027047637344983803
0.002685659297477712
0.0026705176936695748
0.002659583664783389
0.002652985359759464
0.0026507805717114275
0.00265298535976297
0.0026595836647903886
0.0026705176936800057
0.0026856592974913965
0.002704763734515195
0.0027274103040392235
0.0027529397395468854
0.0027804047941406324
0.002808555076300248
0.0030460638001660535
0.003021559122014823
0.0029974530991671014
0.002974828573430767
0.0029545562659464087
0.002937290058533298
0.002923489550942957
0.0029134565215017056
0.002907373499643366
0.0029053360115557404
0.002907373499647152
0.0029134565215092516
0.002923489550954203
0.002937290058548084
0.002954556265964612
0.0029748285734522376
0.0029974530991916763
0.0030215591220423286
0.003046063800196348
0.0032848648082202526
0.003263445808824315
0.003242274628269319
0.003222275607826105
0.003204227053895613
0.003188745822777941
0.003176293149724418
0.0031671931622624504
0.0031616558143095458
0.0031597976345559766
0.0031616558143135716
0.003167193162270483
0.0031762931497363936
0.0031887458227937136
0.003204227053915072
0.0032222756078491128
0.0032422746282957274
0.0032634458088539823
0.0032848648082530606
0.003524957839960163
0.0035061345819560894
0.0034874995718526766
0.0034698320963561843
0.0034538133590357525
0.003440005740535639
0.003428848463372476
0.0034206641444992658
0.0034156705262709053
0.003413992459937053
0.0034156705262751177
0.003420664144507667
0.0034288484633850096
0.0034400057405521785
0.003453813359056194
0.0034698320963804058
0.0034874995718805536
0.003506134581987498
0.0035249578399950063
0.003766283518356581
0.0037496329571954814
0.0037331703855583574
0.003717545323038559
0.003703343880164191
0.003691065904291025
0.003681114760064137
0.0036737961873001533
0.0036693223385425976
0.0036678174418834546
0.0036693223385469136
0.003673796187308766
0.00368111476007699
0.0036910659043080077
0.003703343880185207
0.0037175453230635152
0.0037331703855871486
0.0037496329572279967
0.0037662835183927437
0.004008747945004664
0.003993908915855898
0.003979294046285558
0.0039654387838035186
0.00395284005561047
0.003941933239528319
0.00393307886224158
0.00392655675456804
0.0039225650409556315
0.003921221464676699
0.0039225650409599605
0.003926556754576677
0.00393307886225447
0.003941933239545371
0.003952840055631615
0.003965438783828667
0.003979294046314624
0.003993908915888791
0.004008747945041328
0.004252239749379908
0.004238906999139846
0.004225854788831231
0.004213519760456328
0.004202317680804765
0.004192621399688123
0.004184746295308976
0.004178941795881813
0.0041753872491033855
0.004174190427105085
0.00417538724910772
0.004178941795890471
0.004184746295321922
0.004192621399705271
0.004202317680826049
0.0042135197604816765
0.0042258547888605795
0.004238906999173116
0.004252239749417058
0.004496641666733286
0.00448455953373622
0.004472823249222913
0.004461784994213365
0.004451788349634486
0.004443147911031762
0.004436134658576513
0.004430966251713432
0.004427801145854897
0.0044267353915140185
0.004427801145859243
0.004430966251722133
0.004436134658589523
0.0044431479110490085
0.004451788349655924
0.0044617849942389255
0.004472823249252549
0.0044845595337698755
0.004496641666770907
0.00474183814891283
0.0047307942790146
0.004720162870133626
0.004710224783243314
0.0047012605815617906
0.004693532148998522
0.004687268719188348
0.004682656877308539
0.004679833867944737
0.004678883479933741
0.004679833867949111
0.00468265687731728
0.004687268719201426
0.00469353214901588
0.004701260581583382
0.0047102247832691
0.004720162870163553
0.0047307942790486245
0.004741838148950916
0.004987720117522516
0.0049775394669224335
0.004967834266177598
0.004958825852391367
0.0049507406455720155
0.0049437939047669325
0.004938176846825036
0.004934046954073585
0.004931521105138563
0.0049306710897983365
0.004931521105142957
0.004934046954082375
0.004938176846838192
0.0049437939047844125
0.004950740645593776
0.0049588258524173754
0.0049678342662078144
0.0049775394669568235
0.004987720117561047
0.00523418768401446
0.00522472696376591
0.005215798096929694
0.0052075733038066795
0.005200233141673299
0.005193952391577075
0.005188888489424664
0.005185172501721729
0.005182902484993314
0.005182138991320476
0.005182902484997733
0.005185172501730574
0.005188888489437899
0.005193952391594679
0.00520023314169524
0.005207573303832916
0.005215798096960198
0.005224726963800664
0.00523418768405343
0.005481151450183313
0.0054722940990300575
0.005464016867128269
0.005456451899033773
0.005449741406330241
0.005444025587115604
0.00543943245083222
0.005436069659339682
0.00543401835938746
0.005433328906220446
0.005434018359391909
0.005436069659348588
0.0054394324508455485
0.005444025587133335
0.005449741406352355
0.005456451899060242
0.0054640168671590715
0.005472294099065161
0.005481151450222707
0.005728532843502261
0.005720184566290964
0.005712455969428157
0.005705446865847577
0.005699267797434457
0.005694029833724435
0.00568983577824759
0.005686772959064479
0.005684907665817638
0.005684281223991654
0.005684907665822122
0.005686772959073444
0.005689835778261022
0.005694029833742305
0.005699267797456753
0.005705446865874276
0.005712455969459253
0.00572018456632642
0.0057285328435420675
0.0059762638210775825
0.005968348694775678
0.005961084203396983
0.005954544374101519
0.0059488138999044945
0.005943979633891054
0.005940123105190793
0.005937314267428646
0.005935606594440655
0.005935033571755363
0.005935606594445171
0.005937314267437677
0.005940123105204324
0.005943979633909069
0.005948813899926978
0.00595454437412846
0.005961084203428356
0.005968348694811478
0.005976263821117788
0.006224286184356343
0.0062167433094463724
0.006209873941742884
0.0062037317858147974
0.006198380679937554
0.006193887589819883
0.0061903163269322655
0.006187722214638447
0.006186147845068409
0.00618562000956633
0.006186147845072958
0.006187722214647548
0.006190316326945895
0.006193887589838042
0.006198380679960224
0.00620373178584197
0.0062098739417745475
0.00621674330948251
0.006224286184396953
0.006472550677364559
0.006465331336658499
0.006458801067356154
0.006452997754912759
0.00644796860587038
0.006443764445172959
0.006440434511321887
0.006438021970564907
0.006436560304482166
0.0064360706717448155
0.0064365603044865575
0.0064380219705736964
0.006440434511335059
0.006443764445190502
0.006447968605892293
0.006452997754939035
0.006458801067386788
0.006465331336693476
0.006472550677403873
0.006721015989117418
0.006714081266853193
0.006707844769314389
0.006702332229879014
0.006697577746535985
0.00669361919514729
0.006690493969524026
0.006688235258281324
0.006686869013072353
0.006686411715690371
0.006686869013076418
0.006688235258289473
0.006690493969536242
0.006693619195163566
0.006697577746556315
0.006702332229903398
0.006707844769342837
0.0067140812668856804
0.0067210159891539405
0.0069696477420525
0.0069629665518373685
0.006956987259772127
0.006951726396414365
0.006947207853368828
0.0069434592381650735
0.0069405084289266335
0.006938380522170721
0.006937095321379788
0.0069366654730474726
0.006937095321383548
0.006938380522178236
0.0069405084289378876
0.006943459238180075
0.006947207853387575
0.0069517263964368635
0.006956987259798376
0.006962966551867352
0.006969647742086226
0.007218417519827693
0.007211964989190602
0.007206213454374362
0.007201172585526705
0.007196858429627794
0.007193290548604218
0.007190489264925574
0.007188473188681756
0.007187257162431906
0.007186850724880778
0.007187257162435348
0.007188473188688627
0.007190489264935881
0.007193290548617956
0.007196858429644973
0.007201172585547307
0.007206213454398412
0.0072119649892180785
0.007218417519858607
0.007467301967237194
0.00746105812808788
0.007455510644761318
0.007450664164102603
0.007446528788397835
0.007443117855193905
0.007440445759851361
0.007438525974496362
0.007437369385759729
0.007436983043652874
0.007437369385762857
0.007438525974502595
0.0074404457598607095
0.007443117855206373
0.007446528788413426
0.007450664164121322
0.0074555106447831655
0.007461058128112857
0.007467301967265287
0.0077162819804774225
0.007710230717679446
0.007704868181510963
0.007700195419004815
0.007696218100055451
0.007692944813976664
0.007690385366438172
0.007688549209910593
0.007687444114543856
0.007687075161231395
0.007687444114546664
0.007688549209916189
0.007690385366446574
0.0076929448139878695
0.007696218100069466
0.007700195419021641
0.00770486818153061
0.007710230717701905
0.007716281980502691
0.007965341996076682
0.007959470209796819
0.007954277178422503
0.00794976144138727
0.007945925429337723
0.007942774168181638
0.007940313960345951
0.00793855115527215
0.007937491099267063
0.007937137334733236
0.007937491099269544
0.007938551155277114
0.007940313960353402
0.00794277416819158
0.007945925429350163
0.007949761441402218
0.007954277178439956
0.007959470209816768
0.007965341996099131
0.008214469380378049
0.00820876632109991
0.008203730243550847
0.008199358014742262
0.008195649761911552
0.008192607890128416
0.00819023607172767
0.008188538295928924
0.008187518050223325
0.00818717769145451
0.008187518050225492
0.008188538295933254
0.008190236071734172
0.0081926078901371
0.008195649761922427
0.00819935801475532
0.008203730243566095
0.00820876632111735
0.008214469380397686
0.008463653917626272
0.00845811065488907
0.008453221238207851
0.008448981507949592
0.008445390020450068
0.008442447302598128
0.008440155090011352
0.008438515606760637
0.008437530937783289
0.008437202541010262
0.008437530937785145
0.008438515606764339
0.008440155090016912
0.008442447302605547
0.008445390020459369
0.008448981507960767
0.008453221238220903
0.008458110654904004
0.00846365391764309
0.008712887392593302
0.008707496378724902
0.008702745061915568
0.008698628773469674
0.008695145070954608
0.00869229317913077
0.008690073439090354
0.008688486781264932
0.008687534253865816
0.008687216647600951
0.008687534253867354
0.008688486781268006
0.008690073439094963
0.00869229317913694
0.00869514507096233
0.00869862877347895
0.008702745061926415
0.00870749637873732
0.008712887392607293
0.008962163262001641
0.00895691794980288
0.008952297459656519
0.008948297051809192
0.008944913721714636
0.008942145824162565
0.00893999272172362
0.008938454422448491
0.008937531231028832
0.008937223458565296
0.008937531231030058
0.00893845442245093
0.008939992721727286
0.008942145824167462
0.00894491372172078
0.008948297051816574
0.008952297459665167
0.00895691794981279
0.008962163262012818
0.009211476404723792
0.009206370876278458
0.00920187485143919
0.009197983888451083
0.009194694718956627
0.009192005133042894
0.009189913831302179
0.009188420193528477
0.009187524017651093
0.009187225287939853
0.009187524017651993
0.009188420193530285
0.009189913831304899
0.009192005133046521
0.00919469471896118
0.009197983888456577
0.009201874851445628
0.009206370876285853
0.00921147640473214
0.00946082292738746
0.00945585150980478
0.009451474204886907
0.009447687077506473
0.009444486737869275
0.00944187062503229
0.009439837025279103
0.009438384926375085
0.009437513810239629
0.009437223457229355
0.009437513810240213
0.009438384926376256
0.009439837025280867
0.009441870625034652
0.009444486737872248
0.00944768707751008
0.009451474204891142
0.009455851509809664
0.009460822927392979
0.009710199980980255
0.009705356948123104
0.009701093016759645
0.009697404626787084
0.009694288341934792
0.0096917414256898
0.009689761948440012
0.009688348687056756
0.009687500949596644
0.009687218402649973
0.009687500949596911
0.009688348687057305
0.009689761948440819
0.009691741425690896
0.00969428834193618
0.009697404626788801
0.00970109301676168
0.009705356948125476
0.009710199980982957
