# vtk DataFile Version 2.0
mesh vtk view
ASCII
DATASET UNSTRUCTURED_GRID
POINTS 861 double
0.0 0.0 0.0
360.00228176923696 -3.018142491274494 0.0
360.00228176923724 203.01814249127412 0.0
0.0 200.0 0.0
8.57910737348968 -0.9442490266938846 0.0
17.494803523967278 -1.4864093216469654 0.0
26.51432015086083 -1.8935286733810126 0.0
35.569038882359266 -2.194473147656827 0.0
44.63699067003063 -2.422651207655678 0.0
53.707630879951466 -2.5958201124880835 0.0
62.775627051589574 -2.7268518668336945 0.0
71.83814881438158 -2.8251613031450824 0.0
80.89381146576302 -2.897998717576066 0.0
89.94210147011833 -2.951050197611802 0.0
98.98304677210376 -2.988826471512939 0.0
108.01700805116351 -3.014918422522781 0.0
117.04454068134572 -3.032181307591376 0.0
126.0663008520257 -3.0428746799070785 0.0
135.08298137667512 -3.0487733554665115 0.0
144.09526838212523 -3.051257839121243 0.0
153.10381309906703 -3.051389175226855 0.0
162.10921468602214 -3.04997131680851 0.0
171.11201108252007 -3.047603110695196 0.0
180.11267560898773 -3.044721455665405 0.0
189.11161756025024 -3.0416368889781897 0.0
198.10918544898806 -3.0385626744817844 0.0
207.10567188131455 -3.0356383398820177 0.0
216.10131930822055 -3.0329485098616873 0.0
225.09632610580553 -3.030537790855311 0.0
234.0908526024572 -3.0284223767287504 0.0
243.08502679917353 -3.026598961165404 0.0
252.07894962684392 -3.025051462885937 0.0
261.07269965589273 -3.0237559951534068 0.0
270.0663372247294 -3.0226844424881727 0.0
279.0599079881842 -3.021806945986677 0.0
288.0534459080711 -3.021093544669434 0.0
297.0469757181084 -3.0205151743705545 0.0
306.0405148955123 -3.020044188762918 0.0
315.03407516093114 -3.0196545419125163 0.0
324.0276635029932 -3.0193217664689906 0.0
333.02128267440037 -3.0190229230665606 0.0
342.01493102807444 -3.018736876365675 0.0
351.0086015694045 -3.0184459080607415 0.0
360.00197298755086 7.283752037320815 0.0
360.0016519237395 17.585637230235292 0.0
360.0013259912864 27.887501742064412 0.0
360.00101080973224 38.18934076751333 0.0
360.0007217464516 48.49115491912945 0.0
360.00047136451144 58.79294778245511 0.0
360.0002689089393 69.0947241212995 0.0
360.0001206154908 79.39648877488335 0.0
360.0000303088482 89.69824612499467 0.0
360.0 99.99999999963657 0.0
360.0000303088482 110.30175387427846 0.0
360.00012061549086 120.60351122438982 0.0
360.0002689089394 130.9052758779931 0.0
360.00047136451155 141.20705221692262 0.0
360.00072174645175 151.5088450803582 0.0
360.0010108097324 161.81065923208402 0.0
360.00132599128665 172.11249825764273 0.0
360.0016519237397 182.4143627695725 0.0
360.0019729875511 192.71624796258075 0.0
351.00860156951796 203.01844590806044 0.0
342.01493102830096 203.01873687636538 0.0
333.02128267474 203.0190229230663 0.0
324.0276635034459 203.01932176646878 0.0
315.0340751614969 203.01965454191233 0.0
306.0405148961912 203.02004418876277 0.0
297.0469757189003 203.02051517437042 0.0
288.05344590897613 203.0210935446693 0.0
279.05990798920226 203.02180694598653 0.0
270.0663372258605 203.022684442488 0.0
261.0726996571369 203.02375599515324 0.0
252.07894962820131 203.02505146288576 0.0
243.08502680064396 203.02659896116518 0.0
234.09085260404078 203.02842237672846 0.0
225.09632610744237 203.03053779085496 0.0
216.1013193098427 203.0329485098613 0.0
207.10567188292202 203.03563833988161 0.0
198.10918545058098 203.03856267448137 0.0
189.11161756182864 203.04163688897776 0.0
180.11267561055172 203.044721455665 0.0
171.11201108406962 203.04760311069487 0.0
162.1092146875573 203.04997131680832 0.0
153.1038131005879 203.0513891752269 0.0
144.09526838363206 203.0512578391216 0.0
135.08298137816783 203.04877335546735 0.0
126.06630085347038 203.04287467990852 0.0
117.04454068271234 203.03218130759362 0.0
108.01700805243104 203.01491842252594 0.0
98.98304677326117 202.98882647151714 0.0
89.94210147116546 202.95105019761715 0.0
80.8938114666997 202.89799871758265 0.0
71.8381488152076 202.82516130315295 0.0
62.77562705230473 202.72685186684282 0.0
53.707630880555456 202.5958201124983 0.0
44.63699067052439 202.4226512076667 0.0
35.56903888275602 202.19447314766853 0.0
26.51432015116139 201.89352867339295 0.0
17.494803524167008 201.48640932165785 0.0
8.579107373585174 200.94424902670173 0.0
0.0 190.0000000000711 0.0
0.0 180.0000000001421 0.0
0.0 170.0000000002132 0.0
0.0 160.0000000002842 0.0
0.0 150.0000000003553 0.0
0.0 140.0000000004263 0.0
0.0 130.0000000004974 0.0
0.0 120.0000000005163 0.0
0.0 110.0000000005163 0.0
0.0 100.0000000005163 0.0
0.0 90.00000000051627 0.0
0.0 80.00000000051628 0.0
0.0 70.00000000049741 0.0
0.0 60.00000000042633 0.0
0.0 50.0000000003553 0.0
0.0 40.00000000028422 0.0
0.0 30.00000000021316 0.0
0.0 20.00000000014211 0.0
0.0 10.00000000007105 0.0
8.9721104840051 9.381328377877152 0.0
9.05085577580185 19.529551178653918 0.0
9.08853584956704 29.624974136884887 0.0
9.10686630892303 39.698526752745316 0.0
9.117226789169445 49.76015645638499 0.0
9.123358946239808 59.81456120843545 0.0
9.127091376518594 69.86430670333249 0.0
9.129318295027982 79.91104035768615 0.0
9.13050558835869 89.9559514456896 0.0
9.130878787142294 100.00000000049677 0.0
9.13050558836866 110.044048555304 0.0
9.129318295047904 120.08895964330766 0.0
9.127091376548437 130.13569329762535 0.0
9.123358946279554 140.18543879238592 0.0
9.117226789219027 150.23984354430073 0.0
9.106866308982342 160.30147324780478 0.0
9.088535849635855 170.37502586353014 0.0
9.050855775879834 180.470448821626 0.0
8.972110484090962 190.6186716222682 0.0
17.865277406907552 8.807565633591254 0.0
18.048431894134144 19.06537309836383 0.0
18.12928108083384 29.2518230385497 0.0
18.173183026380926 39.3987194745966 0.0
18.19851443860877 49.52216742975302 0.0
18.214002167099466 59.63091108242989 0.0
18.223643998931294 69.73011253417793 0.0
18.22950893926847 79.82314495029027 0.0
18.232678163222065 89.9124523769911 0.0
18.233681424436334 100.00000000047693 0.0
18.232678163242152 110.087547623963 0.0
18.22950893930858 120.17685505066439 0.0
18.223643998991378 130.26988746674246 0.0
18.214002167179483 140.3690889183597 0.0
18.198514438708575 150.47783257090728 0.0
18.173183026500283 160.60128052593484 0.0
18.129281080972373 170.74817696185318 0.0
18.048431894291195 180.9346269019103 0.0
17.8652774070831 191.19243436655248 0.0
26.817932913638234 8.398341142103957 0.0
27.018674256923763 18.67647802550876 0.0
27.13673725346015 28.918574763020665 0.0
27.20541962881655 39.12273752288043 0.0
27.247674736960985 49.29967980321592 0.0
27.27441325180828 59.45776021807947 0.0
27.29149583722452 69.60296893715098 0.0
27.3020701395948 79.73963135997245 0.0
27.307849795711753 89.87106034627331 0.0
27.30968969739406 100.00000000045692 0.0
27.30784979574156 110.12893965464082 0.0
27.302070139654354 120.26036864094235 0.0
27.29149583731371 130.39703106373125 0.0
27.27441325192707 140.5422397826774 0.0
27.247674737109183 150.70032019741794 0.0
27.2054196289939 160.87726247763072 0.0
27.13673725366631 171.08142523736788 0.0
27.01867425715871 181.3235219747559 0.0
26.817932913903675 191.60165885803477 0.0
35.81160365304638 8.09173378584328 0.0
35.99898269078478 18.37737868359296 0.0
36.12901353127939 28.644225844666572 0.0
36.21511417450969 38.885735868028114 0.0
36.27178987466438 49.103482926399096 0.0
36.309402344387706 59.302527826679444 0.0
36.33417858612381 69.48779650610204 0.0
36.349833445950296 79.66350244904353 0.0
36.35849805575811 89.83319955991813 0.0
36.36127303077521 100.00000000043657 0.0
36.35849805579721 110.16680044095533 0.0
36.34983344602839 120.33649755183072 0.0
36.3341785862408 130.51220349474102 0.0
36.30940234454359 140.69747217404375 0.0
36.27178987485899 150.896517074207 0.0
36.215114174742865 161.11426413246096 0.0
36.129013531551166 171.3557741557053 0.0
35.998982691095776 181.62262131666017 0.0
35.811603653398656 191.9082662142891 0.0
44.8288928705025 7.861498766318936 0.0
44.99282091320551 18.14922135916607 0.0
45.11993722755272 28.428628747922627 0.0
45.212890771872566 38.69244593246206 0.0
45.278864614954564 48.93891546147449 0.0
45.324896819773386 59.16969740592588 0.0
45.3562936816637 69.38790632262915 0.0
45.376592766707134 79.596903185618 0.0
45.38798768322002 89.79991892511724 0.0
45.39166164651627 100.00000000041587 0.0
45.387987683268534 110.20008107571472 0.0
45.37659276680406 120.40309681521487 0.0
45.35629368180895 130.6120936781738 0.0
45.32489681996698 140.83030259476243 0.0
45.27886461519647 151.06108453910264 0.0
45.21289077216283 161.30755406800372 0.0
45.11993722789168 171.57137125243145 0.0
44.99282091359412 181.85077864107458 0.0
44.82889287094255 192.1385012338067 0.0
53.858365743466074 7.68785949838759 0.0
53.997226161028976 17.976693066172 0.0
54.11388654308964 28.262814044077302 0.0
54.20594891954835 38.54029301593055 0.0
54.27560828809648 48.80626662440786 0.0
54.32664985030549 59.06056273816957 0.0
54.36269868858364 69.30466897168591 0.0
54.38656963664056 79.54087672763994 0.0
54.40017011146991 89.7717686205309 0.0
54.40458655069577 100.00000000039483 0.0
54.400170111529214 110.22823138025893 0.0
54.38656963675904 120.45912327315065 0.0
54.362698688761256 130.69533102907604 0.0
54.326649850542424 140.93943726248318 0.0
54.275608288392775 151.19373337613936 0.0
54.205948919904216 161.45970698451106 0.0
54.11388654350563 171.7371859562584 0.0
53.997226161506084 182.02330693405594 0.0
53.85836574400583 192.3121405017312 0.0
62.89306880198182 7.557471841993313 0.0
63.008346474344464 17.84725745632423 0.0
63.11146274775513 28.13742572882305 0.0
63.197837520835975 38.42350831355014 0.0
63.26672541461771 48.7026922960046 0.0
63.31941253552139 58.97397091618643 0.0
63.3578551004984 69.23776961969949 0.0
63.3839031711043 79.49543249283298 0.0
63.39896262345259 89.74881093094454 0.0
63.40388758517395 100.00000000037338 0.0
63.39896262352279 110.25118906980255 0.0
63.38390317124471 120.5045675079148 0.0
63.35785510070895 130.76223038102088 0.0
63.319412535802314 141.0260290844299 0.0
63.26672541496923 151.29730770451212 0.0
63.19783752125844 161.57649168686672 0.0
[...]
POINT_DATA 861
SCALARS CellEntityIds float 1
LOOKUP_TABLE default
0.0
0.009964891831447184
0.009964891831447099
0.0
0.00042382972050872806
0.0007236710356467099
0.0009854703565116841
0.0012283896847549362
0.001461967302239163
0.0016910088728364536
0.001918346200216671
0.0021456860107989745
0.0023740505011092643
0.0026040185186886884
0.002835876039557586
0.0030697156160739156
0.003305504667022537
0.0035431331711754687
0.0037824470547896953
0.0040232713338595955
0.004265425810118978
0.004508735338893786
0.004753036163806207
0.004998179440148089
0.00524403279076665
0.005490480526065825
0.005737422995948966
0.00598477541503776
0.006232466405344008
0.00648043642666661
0.006728636209485063
0.006977025264115874
0.0072255705101735065
0.007474245049389737
0.00772302709057401
0.007971899026372794
0.008220846656416047
0.008469858549779961
0.008718925541422867
0.008968040363312465
0.009217197423997481
0.009466392773175713
0.009715624297686609
0.009959605885429339
0.009954885379875643
0.009950729376614623
0.009947134644622732
0.009944097828547143
0.00994161615320939
0.009939687591630565
0.009938310805616362
0.009937485000302991
0.00993720977230258
0.009937485000302946
0.009938310805616274
0.009939687591630424
0.009941616153209218
0.009944097828546956
0.009947134644622553
0.009950729376614453
0.0099548853798755
0.009959605885429228
0.00971562429768966
0.009466392773181894
0.009217197424006798
0.008968040363324914
0.008718925541438454
0.008469858549798677
0.008220846656437885
0.007971899026397758
0.0077230270906021034
0.007474245049420953
0.0072255705102078375
0.0069770252641533186
0.006728636209525613
0.0064804364267102505
0.0062324664053890755
0.0059847754150823725
0.00573742299599312
0.005490480526109506
0.005244032790809833
0.004998179440190762
0.004753036163848345
0.004508735338935366
0.004265425810159981
0.004023271333900006
0.003782447054829479
0.0035431331712137
0.0033055046670584128
0.003069715616106911
0.002835876039587447
0.00260401851871546
0.0023740505011330135
0.002145686010819779
0.0019183462002346275
0.0016910088728516667
0.0014619673022517707
0.0012283896847653892
0.0009854703565201175
0.0007236710356530797
0.00042382972051285047
0.0
0.0
0.0
0.0
0.0
0.0
0.0
0.0
0.0
0.0
0.0
0.0
0.0
0.0
0.0
0.0
0.0
0.0
0.0
0.00029804500929811456
0.0002631715809855311
0.0002448533447978258
0.00023418077825865642
0.00022725779937114826
0.00022260335308516154
0.00021946139023788772
0.00021742975609004983
0.000216285717310558
0.00021591599524708923
0.00021628571731087452
0.0002174297560906929
0.00021946139023887112
0.00022260335308647657
0.00022725779937281533
0.0002341807782607117
0.0002448533448003408
0.0002631715809886216
0.0002980450093021277
0.0006074584445566385
0.0005375599687097838
0.0005005334955026646
0.0004777875230220723
0.0004630192077631434
0.0004530713088113361
0.0004463649207567584
0.00044203247926635124
0.0004395945663234055
0.0004388069552598632
0.0004395945663240631
0.00044203247926768633
0.0004463649207587996
0.00045307130881406865
0.0004630192077666094
0.00047778752302634323
0.0005005334955078482
0.0005375599687160274
0.0006074584445637579
0.0008850137699087522
0.0008103554514172678
0.000760365156955546
0.0007276618506666484
0.0007055481365702457
0.0006903879217352013
0.0006800651890718651
0.0006733613375250819
0.0006695781868602238
0.0006683544457511811
0.0006695781868612242
0.0006733613375271117
0.0006800651890749621
0.0006903879217393374
0.0007055481365754676
0.0007276618506730177
0.0007603651569631159
0.0008103554514259444
0.0008850137699179111
0.0011434309026810635
0.001072604288820785
0.0010189474755089778
0.0009801807424081367
0.0009526026409723819
0.000933085559907999
0.0009195476630077351
0.0009106568527568866
0.0009056077686693798
0.0009039698299492537
0.0009056077686707115
0.0009106568527595822
0.0009195476630118342
0.0009330855599134481
0.0009526026409792045
0.0009801807424163402
0.0010189474755184932
0.0010726042888313202
0.0011434309026919765
0.0013901783658994704
0.0013261899864439892
0.0012736556178035458
0.0012328277321015878
0.0012021308165474716
0.0011796118919184095
0.0011636157338825361
0.001152951394428266
0.0011468410316281346
0.0011448506230285133
0.001146841031629789
0.001152951394431608
0.0011636157338875944
0.001179611891925096
0.0012021308165557716
0.0012328277321114376
0.0012736556178147762
0.0013261899864562444
0.0013901783659121928
0.0016303094485324242
0.0015737044127123508
0.0015246442936450956
0.001484394563041004
0.0014527044268625633
0.0014286239118215464
0.0014110892836305207
0.0013992025978578012
0.0013923220757160423
0.001390069930235667
0.0013923220757180407
0.0013992025978618254
0.0014110892836365805
0.001428623911829525
0.0014527044268723985
0.0014843945630525746
0.0015246442936581819
0.001573704412726594
0.0016303094485473654
0.0018669398950321133
0.0018174080791983516
0.001772774417457033
0.0017346541151845333
0.0017035141713477207
0.001679119870907883
0.0016609393652020556
0.001648411437682567
0.0016410842076326117
0.001638673818720955
0.0016410842076349382
0.0016484114376872402
0.001660939365209067
0.0016791198709170836
0.0017035141713590124
0.001734654115197762
0.0017727744174719584
0.0018174080792146457
0.0018669398950493972
0.002102051006676435
0.0020589560954454625
0.0020189823229880294
0.0019837882379662875
0.001954195578046356
0.0019304225975681293
0.0019123438775481769
0.0018996994982095386
0.0018922322317179291
0.0018897640641781703
0.0018922322317205683
0.0018996994982148254
0.0019123438775560863
0.0019304225975784897
0.001954195578059052
0.00198378823798114
0.0020189823230048055
0.0020589560954638684
0.0021020510066961594
0.002336894592222741
0.0022995021335763203
0.0022640493333435153
0.002232102702160072
0.0022046274354682502
0.0021821034664037614
0.002164683843163263
0.002152343655518733
0.002144993614800577
0.002142553847717009
0.002144993614803515
0.002152343655524607
0.002164683843172032
0.0021821034664152466
0.002204627435482321
0.00223210270217655
0.0022640493333621766
0.0022995021335969084
0.002336894592244999
0.002572244696436904
0.0025398193472170026
0.002508563658416488
0.002479895437361283
0.00245480389689648
0.002433900804040788
0.002417512422743422
0.0024057789743143444
0.00239873981823861
0.002396394750899736
0.002398739818241836
0.002405778974320786
0.002417512422753028
0.0024339008040533752
0.002454803896911918
0.0024798954373793976
0.0025085636584370767
0.002539819347239841
0.00257224469646178
0.0028085550762726908
0.0027804047941154836
0.0027529397395243257
0.002727410304019443
0.0027047637344983803
0.002685659297477712
0.0026705176936695748
0.002659583664783389
0.002652985359759464
0.0026507805717114275
0.00265298535976297
0.0026595836647903886
0.0026705176936800057
0.0026856592974913965
0.002704763734515195
0.0027274103040392235
0.0027529397395468854
0.0027804047941406324
0.002808555076300248
0.0030460638001660535
0.003021559122014823
0.0029974530991671014
0.002974828573430767
0.0029545562659464087
0.002937290058533298
0.002923489550942957
0.0029134565215017056
0.002907373499643366
0.0029053360115557404
0.002907373499647152
0.0029134565215092516
0.002923489550954203
0.002937290058548084
0.002954556265964612
0.0029748285734522376
0.0029974530991916763
0.0030215591220423286
0.003046063800196348
0.0032848648082202526
0.003263445808824315
0.003242274628269319
0.003222275607826105
0.003204227053895613
0.003188745822777941
0.003176293149724418
0.0031671931622624504
0.0031616558143095458
0.0031597976345559766
0.0031616558143135716
0.003167193162270483
0.0031762931497363936
0.0031887458227937136
0.003204227053915072
0.0032222756078491128
0.0032422746282957274
0.0032634458088539823
0.0032848648082530606
0.003524957839960163
0.0035061345819560894
0.0034874995718526766
0.0034698320963561843
0.0034538133590357525
0.003440005740535639
0.003428848463372476
0.0034206641444992658
0.0034156705262709053
0.003413992459937053
0.0034156705262751177
0.003420664144507667
0.0034288484633850096
0.0034400057405521785
0.003453813359056194
0.0034698320963804058
0.0034874995718805536
0.003506134581987498
0.0035249578399950063
0.003766283518356581
0.0037496329571954814
0.0037331703855583574
0.003717545323038559
0.003703343880164191
0.003691065904291025
0.003681114760064137
0.0036737961873001533
0.0036693223385425976
0.0036678174418834546
0.0036693223385469136
0.003673796187308766
0.00368111476007699
0.0036910659043080077
0.003703343880185207
0.0037175453230635152
0.0037331703855871486
0.0037496329572279967
0.0037662835183927437
0.004008747945004664
0.003993908915855898
0.003979294046285558
0.0039654387838035186
0.00395284005561047
0.003941933239528319
0.00393307886224158
0.00392655675456804
0.0039225650409556315
0.003921221464676699
0.0039225650409599605
0.003926556754576677
0.00393307886225447
0.003941933239545371
0.003952840055631615
0.003965438783828667
0.003979294046314624
0.003993908915888791
0.004008747945041328
0.004252239749379908
0.004238906999139846
0.004225854788831231
0.004213519760456328
0.004202317680804765
0.004192621399688123
0.004184746295308976
0.004178941795881813
0.0041753872491033855
0.004174190427105085
0.00417538724910772
0.004178941795890471
0.004184746295321922
0.004192621399705271
0.004202317680826049
0.0042135197604816765
0.0042258547888605795
0.004238906999173116
0.004252239749417058
0.004496641666733286
0.00448455953373622
0.004472823249222913
0.004461784994213365
0.004451788349634486
0.004443147911031762
0.004436134658576513
0.004430966251713432
0.004427801145854897
0.0044267353915140185
0.004427801145859243
0.004430966251722133
0.004436134658589523
0.0044431479110490085
0.004451788349655924
0.0044617849942389255
0.004472823249252549
0.0044845595337698755
0.004496641666770907
0.00474183814891283
0.0047307942790146
0.004720162870133626
0.004710224783243314
0.0047012605815617906
0.004693532148998522
0.004687268719188348
0.004682656877308539
0.004679833867944737
0.004678883479933741
0.004679833867949111
0.00468265687731728
0.004687268719201426
0.00469353214901588
0.004701260581583382
0.0047102247832691
0.004720162870163553
0.0047307942790486245
0.004741838148950916
0.004987720117522516
0.0049775394669224335
0.004967834266177598
0.004958825852391367
0.0049507406455720155
0.0049437939047669325
0.004938176846825036
0.004934046954073585
0.004931521105138563
0.0049306710897983365
0.004931521105142957
0.004934046954082375
0.004938176846838192
0.0049437939047844125
0.004950740645593776
0.0049588258524173754
0.0049678342662078144
0.0049775394669568235
0.004987720117561047
0.00523418768401446
0.00522472696376591
0.005215798096929694
0.0052075733038066795
0.005200233141673299
0.005193952391577075
0.005188888489424664
0.005185172501721729
0.005182902484993314
0.005182138991320476
0.005182902484997733
0.005185172501730574
0.005188888489437899
0.005193952391594679
0.00520023314169524
0.005207573303832916
0.005215798096960198
0.005224726963800664
0.00523418768405343
0.005481151450183313
0.0054722940990300575
0.005464016867128269
0.005456451899033773
0.005449741406330241
0.005444025587115604
0.00543943245083222
0.005436069659339682
0.00543401835938746
0.005433328906220446
0.005434018359391909
0.005436069659348588
0.0054394324508455485
0.005444025587133335
0.005449741406352355
0.005456451899060242
0.0054640168671590715
0.005472294099065161
0.005481151450222707
0.005728532843502261
0.005720184566290964
0.005712455969428157
0.005705446865847577
0.005699267797434457
0.005694029833724435
0.00568983577824759
0.005686772959064479
0.005684907665817638
0.005684281223991654
0.005684907665822122
0.005686772959073444
0.005689835778261022
0.005694029833742305
0.005699267797456753
0.005705446865874276
0.005712455969459253
0.00572018456632642
0.0057285328435420675
0.0059762638210775825
0.005968348694775678
0.005961084203396983
0.005954544374101519
0.0059488138999044945
0.005943979633891054
0.005940123105190793
0.005937314267428646
0.005935606594440655
0.005935033571755363
0.005935606594445171
0.005937314267437677
0.005940123105204324
0.005943979633909069
0.005948813899926978
0.00595454437412846
0.005961084203428356
0.005968348694811478
0.005976263821117788
0.006224286184356343
0.0062167433094463724
0.006209873941742884
0.0062037317858147974
0.006198380679937554
0.006193887589819883
0.0061903163269322655
0.006187722214638447
0.006186147845068409
0.00618562000956633
0.006186147845072958
0.006187722214647548
0.006190316326945895
0.006193887589838042
0.006198380679960224
0.00620373178584197
0.0062098739417745475
0.00621674330948251
0.006224286184396953
0.006472550677364559
0.006465331336658499
0.006458801067356154
0.006452997754912759
0.00644796860587038
0.006443764445172959
0.006440434511321887
0.006438021970564907
0.006436560304482166
0.0064360706717448155
0.0064365603044865575
0.0064380219705736964
0.006440434511335059
0.006443764445190502
0.006447968605892293
0.006452997754939035
0.006458801067386788
0.006465331336693476
0.006472550677403873
0.006721015989117418
0.006714081266853193
0.006707844769314389
0.006702332229879014
0.006697577746535985
0.00669361919514729
0.006690493969524026
0.006688235258281324
0.006686869013072353
0.006686411715690371
0.006686869013076418
0.006688235258289473
0.006690493969536242
0.006693619195163566
0.006697577746556315
0.006702332229903398
0.006707844769342837
0.0067140812668856804
0.0067210159891539405
0.0069696477420525
0.0069629665518373685
0.006956987259772127
0.006951726396414365
0.006947207853368828
0.0069434592381650735
0.0069405084289266335
0.006938380522170721
0.006937095321379788
0.0069366654730474726
0.006937095321383548
0.006938380522178236
0.0069405084289378876
0.006943459238180075
0.006947207853387575
0.0069517263964368635
0.006956987259798376
0.006962966551867352
0.006969647742086226
0.007218417519827693
0.007211964989190602
0.007206213454374362
0.007201172585526705
0.007196858429627794
0.007193290548604218
0.007190489264925574
0.007188473188681756
0.007187257162431906
0.007186850724880778
0.007187257162435348
0.007188473188688627
0.007190489264935881
0.007193290548617956
0.007196858429644973
0.007201172585547307
0.007206213454398412
0.0072119649892180785
0.007218417519858607
0.007467301967237194
0.00746105812808788
0.007455510644761318
0.007450664164102603
0.007446528788397835
0.007443117855193905
0.007440445759851361
0.007438525974496362
0.007437369385759729
0.007436983043652874
0.007437369385762857
0.007438525974502595
0.0074404457598607095
0.007443117855206373
0.007446528788413426
0.007450664164121322
0.0074555106447831655
0.007461058128112857
0.007467301967265287
0.0077162819804774225
0.007710230717679446
0.007704868181510963
0.007700195419004815
0.007696218100055451
0.007692944813976664
0.007690385366438172
0.007688549209910593
0.007687444114543856
0.007687075161231395
0.007687444114546664
0.007688549209916189
0.007690385366446574
0.0076929448139878695
0.007696218100069466
0.007700195419021641
0.00770486818153061
0.007710230717701905
0.007716281980502691
0.007965341996076682
0.007959470209796819
0.007954277178422503
0.00794976144138727
0.007945925429337723
0.007942774168181638
0.007940313960345951
0.00793855115527215
0.007937491099267063
0.007937137334733236
0.007937491099269544
0.007938551155277114
0.007940313960353402
0.00794277416819158
0.007945925429350163
0.007949761441402218
0.007954277178439956
0.007959470209816768
0.007965341996099131
0.008214469380378049
0.00820876632109991
0.008203730243550847
0.008199358014742262
0.008195649761911552
0.008192607890128416
0.00819023607172767
0.008188538295928924
0.008187518050223325
0.00818717769145451
0.008187518050225492
0.008188538295933254
0.008190236071734172
0.0081926078901371
0.008195649761922427
0.00819935801475532
0.008203730243566095
0.00820876632111735
0.008214469380397686
0.008463653917626272
0.00845811065488907
0.008453221238207851
0.008448981507949592
0.008445390020450068
0.008442447302598128
0.008440155090011352
0.008438515606760637
0.008437530937783289
0.008437202541010262
0.008437530937785145
0.008438515606764339
0.008440155090016912
0.008442447302605547
0.008445390020459369
0.008448981507960767
0.008453221238220903
0.008458110654904004
0.00846365391764309
0.008712887392593302
0.008707496378724902
0.008702745061915568
0.008698628773469674
0.008695145070954608
0.00869229317913077
0.008690073439090354
0.008688486781264932
0.008687534253865816
0.008687216647600951
0.008687534253867354
0.008688486781268006
0.008690073439094963
0.00869229317913694
0.00869514507096233
0.00869862877347895
0.008702745061926415
0.00870749637873732
0.008712887392607293
0.008962163262001641
0.00895691794980288
0.008952297459656519
0.008948297051809192
0.008944913721714636
0.008942145824162565
0.00893999272172362
0.008938454422448491
0.008937531231028832
0.008937223458565296
0.008937531231030058
0.00893845442245093
0.008939992721727286
0.008942145824167462
0.00894491372172078
0.008948297051816574
0.008952297459665167
0.00895691794981279
0.008962163262012818
0.009211476404723792
0.009206370876278458
0.00920187485143919
0.009197983888451083
0.009194694718956627
0.009192005133042894
0.009189913831302179
0.009188420193528477
0.009187524017651093
0.009187225287939853
0.009187524017651993
0.009188420193530285
0.009189913831304899
0.009192005133046521
0.00919469471896118
0.009197983888456577
0.009201874851445628
0.009206370876285853
0.00921147640473214
0.00946082292738746
0.00945585150980478
0.009451474204886907
0.009447687077506473
0.009444486737869275
0.00944187062503229
0.009439837025279103
0.009438384926375085
0.009437513810239629
0.009437223457229355
0.009437513810240213
0.009438384926376256
0.009439837025280867
0.009441870625034652
0.009444486737872248
0.00944768707751008
0.009451474204891142
0.009455851509809664
0.009460822927392979
0.009710199980980255
0.009705356948123104
0.009701093016759645
0.009697404626787084
0.009694288341934792
0.0096917414256898
0.009689761948440012
0.009688348687056756
0.009687500949596644
0.009687218402649973
0.009687500949596911
0.009688348687057305
0.009689761948440819
0.009691741425690896
0.00969428834193618
0.009697404626788801
0.00970109301676168
0.009705356948125476
0.009710199980982957
