# vtk DataFile Version 2.0
mesh vtk view
ASCII
DATASET UNSTRUCTURED_GRID
POINTS 861 double
0.0 0.0 0.0
375.0014261057731 -1.886339057046559 0.0
375.0014261057733 201.88633905704634 0.0
0.0 200.0 0.0
9.111942108416368 -0.590155641683678 0.0
18.43425220244918 -0.9290058260293534 0.0
27.82145009424319 -1.183455420863133 0.0
37.23064930141691 -1.371545717285517 0.0
46.64811916869819 -1.5141570047847988 0.0
56.06726929987978 -1.6223875703050523 0.0
65.48476690713413 -1.7042824167710593 0.0
74.89884300885969 -1.765725814465677 0.0
84.30863216595363 -1.8112491984850414 0.0
93.71381341865623 -1.8444063735073766 0.0
103.1144042323777 -1.868016544695587 0.0
112.51063003177057 -1.8843240140767383 0.0
121.90283792561956 -1.8951133172446102 0.0
131.2914380322884 -1.9017966749419244 0.0
140.67686336018818 -1.9054833471665698 0.0
150.05954273858833 -1.9070361494507768 0.0
159.43988318667087 -1.9071182345167845 0.0
168.81825917851165 -1.906232073005319 0.0
178.1950069263167 -1.9047519441844978 0.0
187.57042225535284 -1.902950909790878 0.0
196.9447609748858 -1.9010230556113685 0.0
206.3182409053408 -1.8991016715511153 0.0
215.6910449255387 -1.8972739624262613 0.0
225.06332456734881 -1.8955928186635547 0.0
234.4352038158333 -1.8940861192845695 0.0
243.80678287624863 -1.892763985455469 0.0
253.17814174921685 -1.8916243507283776 0.0
262.54934351653134 -1.890657164303711 0.0
271.92043728470736 -1.8898474969708794 0.0
281.2914607652508 -1.889177776555108 0.0
290.66244249243056 -1.8886293412416733 0.0
300.0334036923804 -1.8881834654183964 0.0
309.4043598236742 -1.8878219839815966 0.0
318.7753218095721 -1.887527617976824 0.0
328.1462969754794 -1.8872840886953228 0.0
337.5172896892887 -1.8870761040431192 0.0
346.8883016714387 -1.8868893269166005 0.0
356.2593318925055 -1.8867105477285468 0.0
365.6303759808573 -1.8865286925379638 0.0
375.0012331172193 8.302345023310325 0.0
375.0010324523372 18.491023268868243 0.0
375.00082874455404 28.679688588745318 0.0
375.00063175608267 38.868337979631434 0.0
375.0004510915322 49.05697182437204 0.0
375.0002946028196 59.245592363931124 0.0
375.0001680680871 69.43420257569836 0.0
375.00007538468174 79.62280548418214 0.0
375.0000189430301 89.81140382799558 0.0
375.0 99.99999999964062 0.0
375.0000189430301 110.18859617128565 0.0
375.0000753846818 120.37719451509915 0.0
375.00016806808713 130.56579742360213 0.0
375.00029460281974 140.75440763545356 0.0
375.00045109153234 150.94302817512136 0.0
375.0006317560828 161.13166201997046 0.0
375.00082874455416 171.32031141096516 0.0
375.0010324523373 181.50897673094178 0.0
375.00123311721944 191.69765497659245 0.0
365.6303759809754 201.88652869253778 0.0
356.2593318927414 201.88671054772837 0.0
346.8883016717925 201.88688932691645 0.0
337.5172896897603 201.887076104043 0.0
328.1462969760688 201.8872840886952 0.0
318.77532181027937 201.88752761797673 0.0
309.4043598244992 201.88782198398152 0.0
300.0334036933232 201.8881834654183 0.0
290.6624424934912 201.8886293412416 0.0
281.2914607664292 201.88917777655502 0.0
271.9204372860037 201.8898474969708 0.0
262.5493435179456 201.8906571643036 0.0
253.17814175074886 201.89162435072825 0.0
243.80678287789854 201.8927639854553 0.0
234.43520381753865 201.89408611928437 0.0
225.06332456903885 201.89559281866332 0.0
215.69104492721345 201.897273962426 0.0
206.3182409070003 201.89910167155085 0.0
196.9447609765301 201.9010230556111 0.0
187.570422256982 201.90295090979063 0.0
178.1950069279307 201.90475194418428 0.0
168.81825918011052 201.90623207300519 0.0
159.4398831882546 201.9071182345168 0.0
150.05954274015727 201.907036149451 0.0
140.6768633617421 201.9054833471671 0.0
131.29143803379202 201.90179667494283 0.0
121.9028379270416 201.895113317246 0.0
112.51063003308916 201.88432401407871 0.0
103.11440423358135 201.8680165446982 0.0
93.71381341974488 201.84440637351074 0.0
84.30863216692714 201.81124919848918 0.0
74.89884300971791 201.7657258144706 0.0
65.48476690787697 201.70428241677675 0.0
56.067269300507036 201.62238757031145 0.0
46.64811916921097 201.51415700479168 0.0
37.23064930182909 201.37154571729283 0.0
27.821450094555804 201.1834554208706 0.0
18.43425220265767 200.92900582603616 0.0
9.111942108517377 200.59015564168857 0.0
0.0 190.0000000000711 0.0
0.0 180.0000000001421 0.0
0.0 170.0000000002132 0.0
0.0 160.0000000002842 0.0
0.0 150.0000000003553 0.0
0.0 140.0000000004263 0.0
0.0 130.0000000004974 0.0
0.0 120.0000000005163 0.0
0.0 110.0000000005163 0.0
0.0 100.0000000005163 0.0
0.0 90.00000000051627 0.0
0.0 80.00000000051628 0.0
0.0 70.00000000049741 0.0
0.0 60.00000000042633 0.0
0.0 50.0000000003553 0.0
0.0 40.00000000028422 0.0
0.0 30.00000000021316 0.0
0.0 20.00000000014211 0.0
0.0 10.00000000007105 0.0
9.357569052490572 9.613330236198822 0.0
9.406784859865606 19.70596948670994 0.0
9.430334905970916 29.76560883562987 0.0
9.441791443070475 39.811579220568134 0.0
9.44826674322655 49.85009778536843 0.0
9.452099341397595 59.88410075542545 0.0
9.454432110323904 69.91519168976181 0.0
9.455823934394337 79.9444002237396 0.0
9.456565992728095 89.97246965374161 0.0
9.456799241969915 100.00000000049596 0.0
9.45656599273846 110.02753034725032 0.0
9.455823934415054 120.05559977725243 0.0
9.454432110354952 130.0848083111941 0.0
9.452099341438966 140.11589924539402 0.0
9.448266743278204 150.1499022153153 0.0
9.441791443132344 160.18842077997985 0.0
9.430334906042855 170.23439116478275 0.0
9.406784859947408 180.29403051356718 0.0
9.357569052581429 190.3866697639431 0.0
18.665798379291033 9.25472852101909 0.0
18.78026993381184 19.41585818652658 0.0
18.830800675503333 29.532389399167254 0.0
18.85823939147444 39.6241996717209 0.0
18.874071524121025 49.70135464371802 0.0
18.883751354431894 59.7693194266654 0.0
18.88977749933097 69.83132033403271 0.0
18.893443087045892 79.88946559410934 0.0
18.895423852021064 89.94528273579705 0.0
18.89605089028417 100.00000000047538 0.0
18.89542385204199 110.05471726515388 0.0
18.89344308708769 120.11053440684194 0.0
18.889777499393624 130.16867966688406 0.0
18.88375135451537 140.23068057412053 0.0
18.874071524225236 150.29864535693847 0.0
18.858239391599234 160.37580032880643 0.0
18.830800675648476 170.4676106012311 0.0
18.78026993397692 180.5841418137425 0.0
18.665798379476048 190.74527147911957 0.0
28.0112080709853 8.998963213838483 0.0
28.136671410544995 19.17279876599011 0.0
28.210460783386484 29.324109226958484 0.0
28.253387267990465 39.45171095189403 0.0
28.27979671058698 49.562299877126904 0.0
28.296508282372777 59.6611001364398 0.0
28.30718489826416 69.75185558588336 0.0
28.31379383725183 79.83726960015287 0.0
28.31740612233116 89.91941271659044 0.0
28.31855606088884 100.00000000045473 0.0
28.317406122362268 110.08058728431922 0.0
28.313793837314 120.16273040075718 0.0
28.307184898357335 130.24814441499382 0.0
28.296508282496923 140.33889986431203 0.0
28.27979671074198 150.43770012350174 0.0
28.25338726817617 160.54828904861165 0.0
28.210460783602667 170.67589077342427 0.0
28.136671410791653 180.82720123426864 0.0
28.011208071263493 191.00103678629483 0.0
37.38225228310457 8.807333616174512 0.0
37.49936418169928 18.98586167729068 0.0
37.58063345701662 29.15264115298405 0.0
37.63444635904377 39.30358491760705 0.0
37.66986867164866 49.439676829110965 0.0
37.693376465233946 59.564079891808206 0.0
37.708861616327226 69.67987281647027 0.0
37.718645903726994 79.78968903081446 0.0
37.72406128486509 89.89574972511046 0.0
37.72579564425898 100.00000000043387 0.0
37.72406128490595 110.10425027575751 0.0
37.718645903808635 120.210310970054 0.0
37.70886161644961 130.32012718436664 0.0
37.693376465397066 140.43592010890893 0.0
37.66986867185239 150.56032317148902 0.0
37.634446359288035 160.69641508287583 0.0
37.580633457301424 170.84735884738157 0.0
37.49936418202502 181.01413832295648 0.0
37.38225228347253 191.1926663839526 0.0
46.768058044003325 8.663436728970751 0.0
46.87051307070291 18.84326334952182 0.0
46.94996076718013 29.01789296751597 0.0
47.008056732390244 39.18277870787399 0.0
47.049290384326696 49.33682216352766 0.0
47.07806051234867 59.48106087883065 0.0
47.09768355104032 69.6174414517922 0.0
47.110370479202686 79.74806449116566 0.0
47.11749230203344 89.87494932835192 0.0
47.11978852910381 100.00000000041281 0.0
47.11749230208419 110.1250506724738 0.0
47.110370479304095 120.25193550966064 0.0
47.09768355119237 130.3825585490039 0.0
47.07806051255134 140.51893912185102 0.0
47.049290384579976 150.66317783704292 0.0
47.008056732694165 160.81722129258537 0.0
46.949960767534904 170.98210703283192 0.0
46.87051307110914 181.15673665071313 0.0
46.768058044462116 191.3365632711499 0.0
56.161478589588896 8.554912186512613 0.0
56.248266350578206 18.735433166398476 0.0
56.3211790893786 28.914258777609522 0.0
56.378718074677785 39.08768313503753 0.0
56.42225518003285 49.25391664035558 0.0
56.45415615642598 59.41285171147638 0.0
56.476686680362306 69.56541810744517 0.0
56.491606022910375 79.71304795492154 0.0
56.5001063196912 89.85735538797746 0.0
56.50286659421985 100.00000000039152 0.0
56.50010631975324 110.14264461280564 0.0
56.49160602303437 120.28695204586202 0.0
56.47668668054824 130.4345818933095 0.0
56.45415615667397 140.58714828916942 0.0
56.42225518034292 150.74608336018497 0.0
56.37871807505006 160.9123168653977 0.0
56.32117908981343 171.08574122272023 0.0
56.2482663510762 181.2645668338241 0.0
56.16147859015103 191.44508781360156 0.0
65.55816800114407 8.473419901265144 0.0
65.63021654638553 18.65453591024157 0.0
65.694664217282 28.83589108057249 0.0
65.7486484504723 39.01469269604549 0.0
65.7917033841007 49.18918268509812 0.0
65.82463283468029 59.35873182273034 0.0
65.84865943780571 69.52360601244614 0.0
65.8649394819492 79.68464530815933 0.0
65.87435163968166 89.84300683197799 0.0
65.8774297407723 100.00000000036994 0.0
65.87435163975512 110.15699316876211 0.0
65.86493948209612 120.3153546925812 0.0
65.84865943802606 130.47639398826684 0.0
65.8246328349742 140.64126817787906 0.0
65.79170338446832 150.81081731541207 0.0
65.74864845091386 160.98530730436528 0.0
[...]
POINT_DATA 861
SCALARS CellEntityIds float 1
LOOKUP_TABLE default
0.0
0.009964891831447184
0.009964891831447099
0.0
0.00042382972050872806
0.0007236710356467099
0.0009854703565116841
0.0012283896847549362
0.001461967302239163
0.0016910088728364536
0.001918346200216671
0.0021456860107989745
0.0023740505011092643
0.0026040185186886884
0.002835876039557586
0.0030697156160739156
0.003305504667022537
0.0035431331711754687
0.0037824470547896953
0.0040232713338595955
0.004265425810118978
0.004508735338893786
0.004753036163806207
0.004998179440148089
0.00524403279076665
0.005490480526065825
0.005737422995948966
0.00598477541503776
0.006232466405344008
0.00648043642666661
0.006728636209485063
0.006977025264115874
0.0072255705101735065
0.007474245049389737
0.00772302709057401
0.007971899026372794
0.008220846656416047
0.008469858549779961
0.008718925541422867
0.008968040363312465
0.009217197423997481
0.009466392773175713
0.009715624297686609
0.009959605885429339
0.009954885379875643
0.009950729376614623
0.009947134644622732
0.009944097828547143
0.00994161615320939
0.009939687591630565
0.009938310805616362
0.009937485000302991
0.00993720977230258
0.009937485000302946
0.009938310805616274
0.009939687591630424
0.009941616153209218
0.009944097828546956
0.009947134644622553
0.009950729376614453
0.0099548853798755
0.009959605885429228
0.00971562429768966
0.009466392773181894
0.009217197424006798
0.008968040363324914
0.008718925541438454
0.008469858549798677
0.008220846656437885
0.007971899026397758
0.0077230270906021034
0.007474245049420953
0.0072255705102078375
0.0069770252641533186
0.006728636209525613
0.0064804364267102505
0.0062324664053890755
0.0059847754150823725
0.00573742299599312
0.005490480526109506
0.005244032790809833
0.004998179440190762
0.004753036163848345
0.004508735338935366
0.004265425810159981
0.004023271333900006
0.003782447054829479
0.0035431331712137
0.0033055046670584128
0.003069715616106911
0.002835876039587447
0.00260401851871546
0.0023740505011330135
0.002145686010819779
0.0019183462002346275
0.0016910088728516667
0.0014619673022517707
0.0012283896847653892
0.0009854703565201175
0.0007236710356530797
0.00042382972051285047
0.0
0.0
0.0
0.0
0.0
0.0
0.0
0.0
0.0
0.0
0.0
0.0
0.0
0.0
0.0
0.0
0.0
0.0
0.0
0.00029804500929811456
0.0002631715809855311
0.0002448533447978258
0.00023418077825865642
0.00022725779937114826
0.00022260335308516154
0.00021946139023788772
0.00021742975609004983
0.000216285717310558
0.00021591599524708923
0.00021628571731087452
0.0002174297560906929
0.00021946139023887112
0.00022260335308647657
0.00022725779937281533
0.0002341807782607117
0.0002448533448003408
0.0002631715809886216
0.0002980450093021277
0.0006074584445566385
0.0005375599687097838
0.0005005334955026646
0.0004777875230220723
0.0004630192077631434
0.0004530713088113361
0.0004463649207567584
0.00044203247926635124
0.0004395945663234055
0.0004388069552598632
0.0004395945663240631
0.00044203247926768633
0.0004463649207587996
0.00045307130881406865
0.0004630192077666094
0.00047778752302634323
0.0005005334955078482
0.0005375599687160274
0.0006074584445637579
0.0008850137699087522
0.0008103554514172678
0.000760365156955546
0.0007276618506666484
0.0007055481365702457
0.0006903879217352013
0.0006800651890718651
0.0006733613375250819
0.0006695781868602238
0.0006683544457511811
0.0006695781868612242
0.0006733613375271117
0.0006800651890749621
0.0006903879217393374
0.0007055481365754676
0.0007276618506730177
0.0007603651569631159
0.0008103554514259444
0.0008850137699179111
0.0011434309026810635
0.001072604288820785
0.0010189474755089778
0.0009801807424081367
0.0009526026409723819
0.000933085559907999
0.0009195476630077351
0.0009106568527568866
0.0009056077686693798
0.0009039698299492537
0.0009056077686707115
0.0009106568527595822
0.0009195476630118342
0.0009330855599134481
0.0009526026409792045
0.0009801807424163402
0.0010189474755184932
0.0010726042888313202
0.0011434309026919765
0.0013901783658994704
0.0013261899864439892
0.0012736556178035458
0.0012328277321015878
0.0012021308165474716
0.0011796118919184095
0.0011636157338825361
0.001152951394428266
0.0011468410316281346
0.0011448506230285133
0.001146841031629789
0.001152951394431608
0.0011636157338875944
0.001179611891925096
0.0012021308165557716
0.0012328277321114376
0.0012736556178147762
0.0013261899864562444
0.0013901783659121928
0.0016303094485324242
0.0015737044127123508
0.0015246442936450956
0.001484394563041004
0.0014527044268625633
0.0014286239118215464
0.0014110892836305207
0.0013992025978578012
0.0013923220757160423
0.001390069930235667
0.0013923220757180407
0.0013992025978618254
0.0014110892836365805
0.001428623911829525
0.0014527044268723985
0.0014843945630525746
0.0015246442936581819
0.001573704412726594
0.0016303094485473654
0.0018669398950321133
0.0018174080791983516
0.001772774417457033
0.0017346541151845333
0.0017035141713477207
0.001679119870907883
0.0016609393652020556
0.001648411437682567
0.0016410842076326117
0.001638673818720955
0.0016410842076349382
0.0016484114376872402
0.001660939365209067
0.0016791198709170836
0.0017035141713590124
0.001734654115197762
0.0017727744174719584
0.0018174080792146457
0.0018669398950493972
0.002102051006676435
0.0020589560954454625
0.0020189823229880294
0.0019837882379662875
0.001954195578046356
0.0019304225975681293
0.0019123438775481769
0.0018996994982095386
0.0018922322317179291
0.0018897640641781703
0.0018922322317205683
0.0018996994982148254
0.0019123438775560863
0.0019304225975784897
0.001954195578059052
0.00198378823798114
0.0020189823230048055
0.0020589560954638684
0.0021020510066961594
0.002336894592222741
0.0022995021335763203
0.0022640493333435153
0.002232102702160072
0.0022046274354682502
0.0021821034664037614
0.002164683843163263
0.002152343655518733
0.002144993614800577
0.002142553847717009
0.002144993614803515
0.002152343655524607
0.002164683843172032
0.0021821034664152466
0.002204627435482321
0.00223210270217655
0.0022640493333621766
0.0022995021335969084
0.002336894592244999
0.002572244696436904
0.0025398193472170026
0.002508563658416488
0.002479895437361283
0.00245480389689648
0.002433900804040788
0.002417512422743422
0.0024057789743143444
0.00239873981823861
0.002396394750899736
0.002398739818241836
0.002405778974320786
0.002417512422753028
0.0024339008040533752
0.002454803896911918
0.0024798954373793976
0.0025085636584370767
0.002539819347239841
0.00257224469646178
0.0028085550762726908
0.0027804047941154836
0.0027529397395243257
0.002727410304019443
0.0027047637344983803
0.002685659297477712
0.0026705176936695748
0.002659583664783389
0.002652985359759464
0.0026507805717114275
0.00265298535976297
0.0026595836647903886
0.0026705176936800057
0.0026856592974913965
0.002704763734515195
0.0027274103040392235
0.0027529397395468854
0.0027804047941406324
0.002808555076300248
0.0030460638001660535
0.003021559122014823
0.0029974530991671014
0.002974828573430767
0.0029545562659464087
0.002937290058533298
0.002923489550942957
0.0029134565215017056
0.002907373499643366
0.0029053360115557404
0.002907373499647152
0.0029134565215092516
0.002923489550954203
0.002937290058548084
0.002954556265964612
0.0029748285734522376
0.0029974530991916763
0.0030215591220423286
0.003046063800196348
0.0032848648082202526
0.003263445808824315
0.003242274628269319
0.003222275607826105
0.003204227053895613
0.003188745822777941
0.003176293149724418
0.0031671931622624504
0.0031616558143095458
0.0031597976345559766
0.0031616558143135716
0.003167193162270483
0.0031762931497363936
0.0031887458227937136
0.003204227053915072
0.0032222756078491128
0.0032422746282957274
0.0032634458088539823
0.0032848648082530606
0.003524957839960163
0.0035061345819560894
0.0034874995718526766
0.0034698320963561843
0.0034538133590357525
0.003440005740535639
0.003428848463372476
0.0034206641444992658
0.0034156705262709053
0.003413992459937053
0.0034156705262751177
0.003420664144507667
0.0034288484633850096
0.0034400057405521785
0.003453813359056194
0.0034698320963804058
0.0034874995718805536
0.003506134581987498
0.0035249578399950063
0.003766283518356581
0.0037496329571954814
0.0037331703855583574
0.003717545323038559
0.003703343880164191
0.003691065904291025
0.003681114760064137
0.0036737961873001533
0.0036693223385425976
0.0036678174418834546
0.0036693223385469136
0.003673796187308766
0.00368111476007699
0.0036910659043080077
0.003703343880185207
0.0037175453230635152
0.0037331703855871486
0.0037496329572279967
0.0037662835183927437
0.004008747945004664
0.003993908915855898
0.003979294046285558
0.0039654387838035186
0.00395284005561047
0.003941933239528319
0.00393307886224158
0.00392655675456804
0.0039225650409556315
0.003921221464676699
0.0039225650409599605
0.003926556754576677
0.00393307886225447
0.003941933239545371
0.003952840055631615
0.003965438783828667
0.003979294046314624
0.003993908915888791
0.004008747945041328
0.004252239749379908
0.004238906999139846
0.004225854788831231
0.004213519760456328
0.004202317680804765
0.004192621399688123
0.004184746295308976
0.004178941795881813
0.0041753872491033855
0.004174190427105085
0.00417538724910772
0.004178941795890471
0.004184746295321922
0.004192621399705271
0.004202317680826049
0.0042135197604816765
0.0042258547888605795
0.004238906999173116
0.004252239749417058
0.004496641666733286
0.00448455953373622
0.004472823249222913
0.004461784994213365
0.004451788349634486
0.004443147911031762
0.004436134658576513
0.004430966251713432
0.004427801145854897
0.0044267353915140185
0.004427801145859243
0.004430966251722133
0.004436134658589523
0.0044431479110490085
0.004451788349655924
0.0044617849942389255
0.004472823249252549
0.0044845595337698755
0.004496641666770907
0.00474183814891283
0.0047307942790146
0.004720162870133626
0.004710224783243314
0.0047012605815617906
0.004693532148998522
0.004687268719188348
0.004682656877308539
0.004679833867944737
0.004678883479933741
0.004679833867949111
0.00468265687731728
0.004687268719201426
0.00469353214901588
0.004701260581583382
0.0047102247832691
0.004720162870163553
0.0047307942790486245
0.004741838148950916
0.004987720117522516
0.0049775394669224335
0.004967834266177598
0.004958825852391367
0.0049507406455720155
0.0049437939047669325
0.004938176846825036
0.004934046954073585
0.004931521105138563
0.0049306710897983365
0.004931521105142957
0.004934046954082375
0.004938176846838192
0.0049437939047844125
0.004950740645593776
0.0049588258524173754
0.0049678342662078144
0.0049775394669568235
0.004987720117561047
0.00523418768401446
0.00522472696376591
0.005215798096929694
0.0052075733038066795
0.005200233141673299
0.005193952391577075
0.005188888489424664
0.005185172501721729
0.005182902484993314
0.005182138991320476
0.005182902484997733
0.005185172501730574
0.005188888489437899
0.005193952391594679
0.00520023314169524
0.005207573303832916
0.005215798096960198
0.005224726963800664
0.00523418768405343
0.005481151450183313
0.0054722940990300575
0.005464016867128269
0.005456451899033773
0.005449741406330241
0.005444025587115604
0.00543943245083222
0.005436069659339682
0.00543401835938746
0.005433328906220446
0.005434018359391909
0.005436069659348588
0.0054394324508455485
0.005444025587133335
0.005449741406352355
0.005456451899060242
0.0054640168671590715
0.005472294099065161
0.005481151450222707
0.005728532843502261
0.005720184566290964
0.005712455969428157
0.005705446865847577
0.005699267797434457
0.005694029833724435
0.00568983577824759
0.005686772959064479
0.005684907665817638
0.005684281223991654
0.005684907665822122
0.005686772959073444
0.005689835778261022
0.005694029833742305
0.005699267797456753
0.005705446865874276
0.005712455969459253
0.00572018456632642
0.0057285328435420675
0.0059762638210775825
0.005968348694775678
0.005961084203396983
0.005954544374101519
0.0059488138999044945
0.005943979633891054
0.005940123105190793
0.005937314267428646
0.005935606594440655
0.005935033571755363
0.005935606594445171
0.005937314267437677
0.005940123105204324
0.005943979633909069
0.005948813899926978
0.00595454437412846
0.005961084203428356
0.005968348694811478
0.005976263821117788
0.006224286184356343
0.0062167433094463724
0.006209873941742884
0.0062037317858147974
0.006198380679937554
0.006193887589819883
0.0061903163269322655
0.006187722214638447
0.006186147845068409
0.00618562000956633
0.006186147845072958
0.006187722214647548
0.006190316326945895
0.006193887589838042
0.006198380679960224
0.00620373178584197
0.0062098739417745475
0.00621674330948251
0.006224286184396953
0.006472550677364559
0.006465331336658499
0.006458801067356154
0.006452997754912759
0.00644796860587038
0.006443764445172959
0.006440434511321887
0.006438021970564907
0.006436560304482166
0.0064360706717448155
0.0064365603044865575
0.0064380219705736964
0.006440434511335059
0.006443764445190502
0.006447968605892293
0.006452997754939035
0.006458801067386788
0.006465331336693476
0.006472550677403873
0.006721015989117418
0.006714081266853193
0.006707844769314389
0.006702332229879014
0.006697577746535985
0.00669361919514729
0.006690493969524026
0.006688235258281324
0.006686869013072353
0.006686411715690371
0.006686869013076418
0.006688235258289473
0.006690493969536242
0.006693619195163566
0.006697577746556315
0.006702332229903398
0.006707844769342837
0.0067140812668856804
0.0067210159891539405
0.0069696477420525
0.0069629665518373685
0.006956987259772127
0.006951726396414365
0.006947207853368828
0.0069434592381650735
0.0069405084289266335
0.006938380522170721
0.006937095321379788
0.0069366654730474726
0.006937095321383548
0.006938380522178236
0.0069405084289378876
0.006943459238180075
0.006947207853387575
0.0069517263964368635
0.006956987259798376
0.006962966551867352
0.006969647742086226
0.007218417519827693
0.007211964989190602
0.007206213454374362
0.007201172585526705
0.007196858429627794
0.007193290548604218
0.007190489264925574
0.007188473188681756
0.007187257162431906
0.007186850724880778
0.007187257162435348
0.007188473188688627
0.007190489264935881
0.007193290548617956
0.007196858429644973
0.007201172585547307
0.007206213454398412
0.0072119649892180785
0.007218417519858607
0.007467301967237194
0.00746105812808788
0.007455510644761318
0.007450664164102603
0.007446528788397835
0.007443117855193905
0.007440445759851361
0.007438525974496362
0.007437369385759729
0.007436983043652874
0.007437369385762857
0.007438525974502595
0.0074404457598607095
0.007443117855206373
0.007446528788413426
0.007450664164121322
0.0074555106447831655
0.007461058128112857
0.007467301967265287
0.0077162819804774225
0.007710230717679446
0.007704868181510963
0.007700195419004815
0.007696218100055451
0.007692944813976664
0.007690385366438172
0.007688549209910593
0.007687444114543856
0.007687075161231395
0.007687444114546664
0.007688549209916189
0.007690385366446574
0.0076929448139878695
0.007696218100069466
0.007700195419021641
0.00770486818153061
0.007710230717701905
0.007716281980502691
0.007965341996076682
0.007959470209796819
0.007954277178422503
0.00794976144138727
0.007945925429337723
0.007942774168181638
0.007940313960345951
0.00793855115527215
0.007937491099267063
0.007937137334733236
0.007937491099269544
0.007938551155277114
0.007940313960353402
0.00794277416819158
0.007945925429350163
0.007949761441402218
0.007954277178439956
0.007959470209816768
0.007965341996099131
0.008214469380378049
0.00820876632109991
0.008203730243550847
0.008199358014742262
0.008195649761911552
0.008192607890128416
0.00819023607172767
0.008188538295928924
0.008187518050223325
0.00818717769145451
0.008187518050225492
0.008188538295933254
0.008190236071734172
0.0081926078901371
0.008195649761922427
0.00819935801475532
0.008203730243566095
0.00820876632111735
0.008214469380397686
0.008463653917626272
0.00845811065488907
0.008453221238207851
0.008448981507949592
0.008445390020450068
0.008442447302598128
0.008440155090011352
0.008438515606760637
0.008437530937783289
0.008437202541010262
0.008437530937785145
0.008438515606764339
0.008440155090016912
0.008442447302605547
0.008445390020459369
0.008448981507960767
0.008453221238220903
0.008458110654904004
0.00846365391764309
0.008712887392593302
0.008707496378724902
0.008702745061915568
0.008698628773469674
0.008695145070954608
0.00869229317913077
0.008690073439090354
0.008688486781264932
0.008687534253865816
0.008687216647600951
0.008687534253867354
0.008688486781268006
0.008690073439094963
0.00869229317913694
0.00869514507096233
0.00869862877347895
0.008702745061926415
0.00870749637873732
0.008712887392607293
0.008962163262001641
0.00895691794980288
0.008952297459656519
0.008948297051809192
0.008944913721714636
0.008942145824162565
0.00893999272172362
0.008938454422448491
0.008937531231028832
0.008937223458565296
0.008937531231030058
0.00893845442245093
0.008939992721727286
0.008942145824167462
0.00894491372172078
0.008948297051816574
0.008952297459665167
0.00895691794981279
0.008962163262012818
0.009211476404723792
0.009206370876278458
0.00920187485143919
0.009197983888451083
0.009194694718956627
0.009192005133042894
0.009189913831302179
0.009188420193528477
0.009187524017651093
0.009187225287939853
0.009187524017651993
0.009188420193530285
0.009189913831304899
0.009192005133046521
0.00919469471896118
0.009197983888456577
0.009201874851445628
0.009206370876285853
0.00921147640473214
0.00946082292738746
0.00945585150980478
0.009451474204886907
0.009447687077506473
0.009444486737869275
0.00944187062503229
0.009439837025279103
0.009438384926375085
0.009437513810239629
0.009437223457229355
0.009437513810240213
0.009438384926376256
0.009439837025280867
0.009441870625034652
0.009444486737872248
0.00944768707751008
0.009451474204891142
0.009455851509809664
0.009460822927392979
0.009710199980980255
0.009705356948123104
0.009701093016759645
0.009697404626787084
0.009694288341934792
0.0096917414256898
0.009689761948440012
0.009688348687056756
0.009687500949596644
0.009687218402649973
0.009687500949596911
0.009688348687057305
0.009689761948440819
0.009691741425690896
0.00969428834193618
0.009697404626788801
0.00970109301676168
0.009705356948125476
0.009710199980982957
