# vtk DataFile Version 2.0
mesh vtk view
ASCII
DATASET UNSTRUCTURED_GRID
POINTS 2 double
0.0 0.0 0.0
20.0 0.0 0.0

CELLS 1 3
2 0 1

CELL_TYPES 1
3

CELL_DATA 1
SCALARS CellEntityIds float 1
LOOKUP_TABLE default
1.0
