# vtk DataFile Version 2.0
mesh vtk view
ASCII
DATASET UNSTRUCTURED_GRID
POINTS 101 double
0.0 0.0 0.0
2.0 0.0 0.0
0.0199999999999621 0.0 0.0
0.03999999999992453 0.0 0.0
0.05999999999988582 0.0 0.0
0.07999999999984331 0.0 0.0
0.09999999999979878 0.0 0.0
0.1199999999997561 0.0 0.0
0.1399999999997203 0.0 0.0
0.1599999999996895 0.0 0.0
0.1799999999996589 0.0 0.0
0.1999999999996283 0.0 0.0
0.2199999999995976 0.0 0.0
0.2399999999995651 0.0 0.0
0.2599999999995205 0.0 0.0
0.2799999999994641 0.0 0.0
0.2999999999994057 0.0 0.0
0.3199999999993473 0.0 0.0
0.339999999999289 0.0 0.0
0.3599999999992305 0.0 0.0
0.3799999999991722 0.0 0.0
0.3999999999991138 0.0 0.0
0.4199999999990554 0.0 0.0
0.4399999999989971 0.0 0.0
0.4599999999989386 0.0 0.0
0.4799999999988803 0.0 0.0
0.4999999999988219 0.0 0.0
0.5199999999987635 0.0 0.0
0.5399999999987051 0.0 0.0
0.5599999999986468 0.0 0.0
0.5799999999985884 0.0 0.0
0.5999999999985299 0.0 0.0
0.6199999999984716 0.0 0.0
0.6399999999984132 0.0 0.0
0.6599999999983549 0.0 0.0
0.6799999999982965 0.0 0.0
0.699999999998238 0.0 0.0
0.7199999999981797 0.0 0.0
0.7399999999981213 0.0 0.0
0.759999999998063 0.0 0.0
0.7799999999980046 0.0 0.0
0.7999999999979461 0.0 0.0
0.8199999999978878 0.0 0.0
0.8399999999978294 0.0 0.0
0.8599999999977711 0.0 0.0
0.8799999999977127 0.0 0.0
0.8999999999976543 0.0 0.0
0.9199999999975959 0.0 0.0
0.9399999999975375 0.0 0.0
0.9599999999974792 0.0 0.0
0.9799999999974208 0.0 0.0
0.9999999999973842 0.0 0.0
1.019999999997415 0.0 0.0
1.039999999997468 0.0 0.0
1.059999999997521 0.0 0.0
1.079999999997573 0.0 0.0
1.099999999997626 0.0 0.0
1.119999999997679 0.0 0.0
1.139999999997732 0.0 0.0
1.159999999997785 0.0 0.0
1.179999999997837 0.0 0.0
1.19999999999789 0.0 0.0
1.219999999997943 0.0 0.0
1.239999999997995 0.0 0.0
1.259999999998048 0.0 0.0
1.279999999998101 0.0 0.0
1.299999999998154 0.0 0.0
1.319999999998206 0.0 0.0
1.339999999998259 0.0 0.0
1.359999999998312 0.0 0.0
1.379999999998365 0.0 0.0
1.399999999998417 0.0 0.0
1.41999999999847 0.0 0.0
1.439999999998523 0.0 0.0
1.459999999998576 0.0 0.0
1.479999999998628 0.0 0.0
1.499999999998681 0.0 0.0
1.519999999998734 0.0 0.0
1.539999999998787 0.0 0.0
1.559999999998839 0.0 0.0
1.579999999998892 0.0 0.0
1.599999999998945 0.0 0.0
1.619999999998998 0.0 0.0
1.63999999999905 0.0 0.0
1.659999999999103 0.0 0.0
1.679999999999156 0.0 0.0
1.699999999999209 0.0 0.0
1.719999999999261 0.0 0.0
1.739999999999314 0.0 0.0
1.759999999999367 0.0 0.0
1.77999999999942 0.0 0.0
1.799999999999472 0.0 0.0
1.819999999999525 0.0 0.0
1.839999999999578 0.0 0.0
1.859999999999631 0.0 0.0
1.879999999999683 0.0 0.0
1.899999999999736 0.0 0.0
1.919999999999789 0.0 0.0
1.939999999999842 0.0 0.0
1.959999999999894 0.0 0.0
1.979999999999947 0.0 0.0

CELLS 100 300
2 0 2
2 2 3
2 3 4
2 4 5
2 5 6
2 6 7
2 7 8
2 8 9
2 9 10
2 10 11
2 11 12
2 12 13
2 13 14
2 14 15
2 15 16
2 16 17
2 17 18
2 18 19
2 19 20
2 20 21
2 21 22
2 22 23
2 23 24
2 24 25
2 25 26
2 26 27
2 27 28
2 28 29
2 29 30
2 30 31
2 31 32
2 32 33
2 33 34
2 34 35
2 35 36
2 36 37
2 37 38
2 38 39
2 39 40
2 40 41
2 41 42
2 42 43
2 43 44
2 44 45
2 45 46
2 46 47
2 47 48
2 48 49
2 49 50
2 50 51
2 51 52
2 52 53
2 53 54
2 54 55
2 55 56
2 56 57
2 57 58
2 58 59
2 59 60
2 60 61
2 61 62
2 62 63
2 63 64
2 64 65
2 65 66
2 66 67
2 67 68
2 68 69
2 69 70
2 70 71
2 71 72
2 72 73
2 73 74
2 74 75
2 75 76
2 76 77
2 77 78
2 78 79
2 79 80
2 80 81
2 81 82
2 82 83
2 83 84
2 84 85
2 85 86
2 86 87
2 87 88
2 88 89
2 89 90
2 90 91
2 91 92
2 92 93
2 93 94
2 94 95
2 95 96
2 96 97
2 97 98
2 98 99
2 99 100
2 100 1

CELL_TYPES 100
3
3
3
3
3
3
3
3
3
3
3
3
3
3
3
3
3
3
3
3
3
3
3
3
3
3
3
3
3
3
3
3
3
3
3
3
3
3
3
3
3
3
3
3
3
3
3
3
3
3
3
3
3
3
3
3
3
3
3
3
3
3
3
3
3
3
3
3
3
3
3
3
3
3
3
3
3
3
3
3
3
3
3
3
3
3
3
3
3
3
3
3
3
3
3
3
3
3
3
3

POINT_DATA 101
SCALARS MODE3_700.9519_Hz float 1
LOOKUP_TABLE default
0.09118681450882947
0.0
0.0009295498158155557
0.09125693601064871
0.17194138989559998
0.24211752563866326
0.3018456195523431
0.35122073437955076
0.39038123783074025
0.41951665093360097
0.4388743930953513
0.44876556566007236
0.44957009940729364
0.4417418422101094
0.4258146254729908
0.40241127590314535
0.37225952663006556
0.3362233383824324
0.2953693905861641
0.25111848097084255
0.20561646596266256
0.16269096357570562
0.13005623241157516
0.12060917064520164
0.14104640074252445
0.18183052404251954
0.23179405068947723
0.284885748156236
0.3380129956007315
0.3893445356842922
0.43761754145211396
0.481865977848573
0.5213081994526352
0.5552979004957344
0.58330211230909
0.6048914241579987
0.6197358915010641
0.6276035512351726
0.6283600213816724
0.6219684288907779
0.608489336141778
0.588080632926178
0.5609976509681489
0.5275941663325547
0.4883256894815294
0.44375796608272994
0.3945871023280649
0.34168649718283334
0.28622005613700674
0.22993578233921122
0.17600162206852357
0.13146020517385276
0.11152536133645088
0.12913436181892646
0.17260862676025518
0.22620397121191704
0.28245858967885845
0.3380496750468379
0.39117005490412865
0.4406290395314782
0.4855384304692499
0.525192157677721
0.5590165711177802
0.5865491445438971
0.6074294550163418
0.6213956605478821
0.6282834004729654
0.6280256487835765
0.6206528188984243
0.6062928400991003
0.5851712192088566
0.5576113922732329
0.5240360817914851
0.484971103285711
0.44105453413311424
0.39305739517941934
0.341929711109961
0.28890568184874604
0.23575651173351375
0.18543283235797672
0.1436548697217123
0.12118229539431824
0.1282696381178451
0.1594916285155639
0.20182602167624572
0.2471426943059258
0.29140944675391245
0.3323935451355953
0.368633604795372
0.3990407355651612
0.4227365221140091
0.43898222122037955
0.4471455589731115
0.44668394946773293
0.4371350665049449
0.4181105778211253
0.3892909677624317
0.35042035767251717
0.30130072125215007
0.24178515649550936
0.1717700734856661

