# vtk DataFile Version 2.0
mesh vtk view
ASCII
DATASET UNSTRUCTURED_GRID
POINTS 101 double
-0.0005836234277767513 0.0 0.0
2.0 0.0 0.0
0.0199999999999621 5.88251379750896e-06 0.0
0.04058362342768853 2.31598226293381e-05 0.0
0.061139479780389035 5.1276614147146206e-05 0.0
0.08166757269243195 8.96777009752333e-05 0.0
0.10216791147886745 0.000137808160990036 0.0
0.12264051377886029 0.0001951135290791522 0.0
0.14308540806021888 0.0002610400376024728 0.0
0.1635026359850873 0.00033503490278014497 0.0
0.1838922546369644 0.0004165466542357005 0.0
0.20425433860925052 0.0005050255049275887 0.0
0.22458898195559684 0.0005999237587089018 0.0
0.24489630000244367 0.0007006962527636161 0.0
0.2651764310242118 0.0008068008321781362 0.0
0.2854295377817622 0.0009176988539198166 0.0
0.30565580892476446 0.0010328557175088013 0.0
0.3258554602587976 0.0011517414196873846 0.0
0.346028735878168 0.0012738311304115785 0.0
0.36617590916550025 0.001398605787512168 0.0
0.38629728365931404 0.0015255527073986673 0.0
0.406393193790979 0.0016541662092085015 0.0
0.4264640054925492 0.0017839482498355822 0.0
0.44651011667715995 0.0019144090673075618 0.0
0.4665319575938166 0.0020450678300192714 0.0
0.4865299910585714 0.002175453289371346 0.0
0.5065047125642355 0.0023051044334076536 0.0
0.5264566502709496 0.002433571139093239 0.0
0.5463863648800895 0.0025604148209256135 0.0
0.5662944493941514 0.0026852090736268104 0.0
0.5861815287654225 0.0028075403067213166 0.0
0.6060482594364076 0.0029270083688660085 0.0
0.6258953287751367 0.0030432271598623073 0.0
0.6457234544086395 0.0031558252283480407 0.0
0.6655333834580297 0.003264446353236872 0.0
0.6853258916787853 0.003368750107046389 0.0
0.7051017825099715 0.003468412399332235 0.0
0.7248618860362813 0.0035631259985246695 0.0
0.7446070578669178 0.0036526010305457024 0.0
0.7643381779354734 0.0037365654526693563 0.0
0.7840561492250859 0.0038147655011743966 0.0
0.8037618964232756 0.0038869661114282186 0.0
0.8234563645109837 0.003952951309131942 0.0
0.8431405172904368 0.004012524571550433 0.0
0.8628153358565687 0.004065509157646423 0.0
0.8824818170168216 0.004111748406135284 0.0
0.9021409716642369 0.0041511060005760825 0.0
0.9217938231088243 0.004183466200714804 0.0
0.9414414053722657 0.004208734039397708 0.0
0.9610847614510782 0.004226835484475604 0.0
0.9807249415534077 0.004237717565223728 0.0
1.0003630013146965 0.004241348462906879 0.0
1.019999999997437 0.004237717565224591 0.0
1.0396369986801994 0.004226835484477272 0.0
1.0592750584415773 0.004208734039400141 0.0
1.078915238544017 0.00418346620071796 0.0
1.098558594622941 0.004151106000579924 0.0
1.1182061768864937 0.004111748406139774 0.0
1.137859028331193 0.004065509157651525 0.0
1.1575181829787198 0.004012524571556113 0.0
1.1771846641390826 0.003952951309138152 0.0
1.1968594827053252 0.003886966111434895 0.0
1.2165436354848882 0.0038147655011814842 0.0
1.2362381035727055 0.003736565452676801 0.0
1.2559438507710057 0.0036526010305534423 0.0
1.275661822060728 0.003563125998532648 0.0
1.295392942129394 0.0034684123993404124 0.0
1.3151381139601404 0.0033687501070547377 0.0
1.3348982174865616 0.003264446353245359 0.0
1.354674108317859 0.0031558252283566393 0.0
1.374466616538726 0.0030432271598709914 0.0
1.394276545588226 0.002927008368874759 0.0
1.4141046712218404 0.002807540306730107 0.0
1.4339517405606808 0.0026852090736356284 0.0
1.4538184712317772 0.0025604148209344402 0.0
1.4737055506031582 0.0024335711391020557 0.0
1.4936136351173306 0.0023051044334164196 0.0
1.5135433497265802 0.0021754532893800225 0.0
1.533495287433404 0.0020450678300278093 0.0
1.553470008939176 0.0019144090673159108 0.0
1.5734680424040393 0.001783948249843679 0.0
1.5934898833208042 0.0016541662092162857 0.0
1.613535994505523 0.0015255527074060798 0.0
1.6336068062072004 0.0013986057875191638 0.0
1.653702716338974 0.001273831130418104 0.0
1.673824090832896 0.0011517414196934009 0.0
1.693971264120337 0.001032855717514287 0.0
1.714144539739817 0.0009176988539247752 0.0
1.73434419107396 0.0008068008321825683 0.0
1.7545704622170721 0.0007006962527675872 0.0
1.774823568974731 0.000599923758712479 0.0
1.795103699996595 0.0005050255049307943 0.0
1.8154110180435263 0.0004165466542385414 0.0
1.8357456613899557 0.0003350349027826364 0.0
1.8561077453623247 0.0002610400376046228 0.0
1.876497364014283 0.0001951135290809564 0.0
1.8969145919392338 0.00013780816099148423 0.0
1.91735948622068 8.967770097633583e-05 0.0
1.9378320885207672 5.127661414792084e-05 0.0
1.9583324273072973 2.315982262980069e-05 0.0
1.9788605202194334 5.882513797662884e-06 0.0

CELLS 100 300
2 0 2
2 2 3
2 3 4
2 4 5
2 5 6
2 6 7
2 7 8
2 8 9
2 9 10
2 10 11
2 11 12
2 12 13
2 13 14
2 14 15
2 15 16
2 16 17
2 17 18
2 18 19
2 19 20
2 20 21
2 21 22
2 22 23
2 23 24
2 24 25
2 25 26
2 26 27
2 27 28
2 28 29
2 29 30
2 30 31
2 31 32
2 32 33
2 33 34
2 34 35
2 35 36
2 36 37
2 37 38
2 38 39
2 39 40
2 40 41
2 41 42
2 42 43
2 43 44
2 44 45
2 45 46
2 46 47
2 47 48
2 48 49
2 49 50
2 50 51
2 51 52
2 52 53
2 53 54
2 54 55
2 55 56
2 56 57
2 57 58
2 58 59
2 59 60
2 60 61
2 61 62
2 62 63
2 63 64
2 64 65
2 65 66
2 66 67
2 67 68
2 68 69
2 69 70
2 70 71
2 71 72
2 72 73
2 73 74
2 74 75
2 75 76
2 76 77
2 77 78
2 78 79
2 79 80
2 80 81
2 81 82
2 82 83
2 83 84
2 84 85
2 85 86
2 86 87
2 87 88
2 88 89
2 89 90
2 90 91
2 91 92
2 92 93
2 93 94
2 94 95
2 95 96
2 96 97
2 97 98
2 98 99
2 99 100
2 100 1

CELL_TYPES 100
3
3
3
3
3
3
3
3
3
3
3
3
3
3
3
3
3
3
3
3
3
3
3
3
3
3
3
3
3
3
3
3
3
3
3
3
3
3
3
3
3
3
3
3
3
3
3
3
3
3
3
3
3
3
3
3
3
3
3
3
3
3
3
3
3
3
3
3
3
3
3
3
3
3
3
3
3
3
3
3
3
3
3
3
3
3
3
3
3
3
3
3
3
3
3
3
3
3
3
3

POINT_DATA 101
SCALARS MODE1_129.7118_Hz float 1
LOOKUP_TABLE default
0.017440921832341978
0.0
0.00017579222909343576
0.017454648767402235
0.03408651653507708
0.04990551922648683
0.06491632756269648
0.07912387896685245
0.092533315276368
0.1051500408187359
0.11697979292646944
0.12802871300668378
0.13830341590824888
0.14781105710241743
0.15655939766072438
0.16455686718478058
0.17181262493259128
0.17833661945501716
0.18413964712217293
0.18923340999121144
0.19363057354788382
0.19734482494910216
0.200390932501593
0.20278480723976655
0.2045435676130017
0.20568560846329936
0.20623067566949874
0.20619994805562522
0.20561612840656449
0.20450354569960047
0.20288827093408196
0.20079824920223582
0.19826345085452332
0.19531604471047387
0.19199059615055183
0.18832429244010088
0.1843571965462954
0.18013252866561677
0.17569697118914018
0.1711009872269012
0.16639913424287098
0.16165034185622457
0.15691810557048316
0.15227052577709219
0.14778009491484168
0.143523108922956
0.1395785601829024
0.13602637156227848
0.13294487310931036
0.13040752183992751
0.1284790262712583
0.12721123912259638
0.12663936587360014
0.12677912044578102
0.1276253722036423
0.129152563370621
0.1313168107065372
0.13405927132480921
0.1373101642493914
0.140992836157694
0.14502740036264133
0.14933368017024748
0.15383337629426141
0.15845151163946583
0.16311727791459668
0.16776442991105842
0.1723313637499063
0.17676099139644105
0.18100049628793502
0.18500102993867384
0.18871738922327716
0.19210769898724098
0.19513311403371478
0.1977575474287987
0.19994742752404154
0.20167148334266524
0.2029005564263962
0.20360743646920818
0.20376671777898006
0.20335467361151996
0.20234914558554748
0.20072944563109174
0.19847626819754485
0.19557161072246798
0.19199870062200952
0.18774192730060782
0.18278677788866907
0.17711977560211004
0.17072841977839578
0.16360112678245595
0.15572717109522813
0.1470966260001969
0.13770030337211775
0.1275296921503407
0.11657689515124656
0.10483456394865988
0.09229583164830564
0.0789542435647913
0.06480368630814447
0.049838317674944295
0.03405250998963208

