# vtk DataFile Version 2.0
mesh vtk view
ASCII
DATASET UNSTRUCTURED_GRID
POINTS 101 double
-0.00981993899441687 0.0 0.0
2.0 0.0 0.0
0.0199999999999621 0.00010010353506423162 0.0
0.04981993899423964 0.00038518276685316894 0.0
0.07849770663372142 0.0008324085485086026 0.0
0.10603507635327848 0.0014190119880831467 0.0
0.13243649773043653 0.0021223492676262167 0.0
0.15771019837832906 0.002919986839022822 0.0
0.18186911988205062 0.003789803688672536 0.0
0.20493168900383982 0.004710107394247416 0.0
0.22692242606765078 0.005659760742789758 0.0
0.24787239323146953 0.006618315742316937 0.0
0.2678194862425992 0.007566151940438408 0.0
0.2868085742235622 0.008484616064344006 0.0
0.3048914930314646 0.009356160117520785 0.0
0.3221268987495474 0.010164475209898506 0.0
0.3385799888844393 0.010894618559580694 0.0
0.3543220998363802 0.011533131285283358 0.0
0.36943019016317313 0.012068144808073224 0.0
0.3839862200527591 0.01248947389762682 0.0
0.3980764382388569 0.012788694630372261 0.0
0.41179058832294013 0.01295920577257501 0.0
0.4252210470907986 0.012996272358485016 0.0
0.4384619079209739 0.01289705049966313 0.0
0.4516080227660804 0.01266059273395162 0.0
0.46475401643790143 0.012287833498509967 0.0
0.4779932870373227 0.011781554588065813 0.0
0.49141700633667634 0.011146330734131685 0.0
0.5051131337427156 0.01038845571049447 0.0
0.5191654571433506 0.009515849631894164 0.0
0.5336526734723552 0.008537948363634142 0.0
0.5486475212174492 0.00746557619716126 0.0
0.5642159763542427 0.006310803167813636 0.0
0.5804165223190935 0.005086788593514417 0.0
0.597299503647217 0.0038076125949525193 0.0
0.6149065718091913 0.0024880975167257723 0.0
0.6332702305915331 0.001143621303275298 0.0
0.6524134870987235 -0.0002100750082604648 0.0
0.6723496131194643 -0.001557083435071456 0.0
0.6930820202144462 -0.002881526539394041 0.0
0.7146042504626037 -0.004167753942363125 0.0
0.7369000833643206 -0.005400535544881355 0.0
0.7599437579601973 -0.006565249172498796 0.0
0.7837003077997372 -0.00764806042259529 0.0
0.8081260050024736 -0.0086360925808325 0.0
0.8331689083110887 -0.009517584588753491 0.0
0.8587695087579017 -0.010282035184108522 0.0
0.884861465367869 -0.010920331498231007 0.0
0.9113724222172339 -0.011424860578561069 0.0
0.9382248971702413 -0.011789602506948715 0.0
0.9653372317388594 -0.01201020400317218 0.0
0.9926245907626206 -0.012084031635495355 0.0
1.0199999999963638 -0.012010204003213665 0.0
1.0473754092301646 -0.011789602507029628 0.0
1.0746627682540881 -0.011424860578678926 0.0
1.101775102822911 -0.010920331498382974 0.0
1.1286275777761434 -0.010282035184291367 0.0
1.1551385346257514 -0.009517584588963724 0.0
1.1812304912359761 -0.00863609258106644 0.0
1.2068310916830591 -0.007648060422849041 0.0
1.2318739949919546 -0.006565249172768391 0.0
1.2562996921949803 -0.005400535545162676 0.0
1.2800562420348145 -0.004167753942652104 0.0
1.3030999166309867 -0.0028815265396867663 0.0
1.3253957495329989 -0.001557083435363991 0.0
1.3469179797814488 -0.0002100750085491151 0.0
1.367650386876717 0.0011436213029939837 0.0
1.3875865128977347 0.002488097516454917 0.0
1.406729769405193 0.0038076125946950633 0.0
1.425093428187791 0.005086788593272892 0.0
1.4427004963500079 0.006310803167590226 0.0
1.4595834776783574 0.007465576196957671 0.0
1.4757840236434203 0.008537948363451823 0.0
1.491352478780409 0.009515849631734088 0.0
1.5063473265256813 0.010388455710357208 0.0
1.5208345428548442 0.011146330734017338 0.0
1.5348868662556197 0.011781554587974124 0.0
1.5485829936617805 0.012287833498440249 0.0
1.5620067129612385 0.012660592733902788 0.0
1.5752459835607453 0.012897050499633791 0.0
1.5883919772326383 0.012996272358473478 0.0
1.6015380920778033 0.012959205772579339 0.0
1.6147789529080248 0.012788694630390325 0.0
1.6282094116759211 0.012489473897656414 0.0
1.641923561760038 0.012068144808112049 0.0
1.6560137799461647 0.011533131285329233 0.0
1.6705698098357902 0.010894618559631626 0.0
1.6856779001626236 0.010164475209952529 0.0
1.7014200111145976 0.009356160117575903 0.0
1.7178731012495185 0.008484616064398936 0.0
1.7351085069676468 0.007566151940492144 0.0
1.753191425775579 0.0066183157423681475 0.0
1.7721805137565594 0.005659760742837069 0.0
1.792127606767713 0.004710107394289739 0.0
1.8130775739315623 0.003789803688709012 0.0
1.8350683109954125 0.0029199868390527694 0.0
1.8581308801172567 0.0021223492676492014 0.0
1.8822898016210519 0.0014190119880993655 0.0
1.9075635022690376 0.0008324085485187598 0.0
1.9339649236463021 0.0003851827668583501 0.0
1.9615022933659756 0.00010010353506572662 0.0

CELLS 100 300
2 0 2
2 2 3
2 3 4
2 4 5
2 5 6
2 6 7
2 7 8
2 8 9
2 9 10
2 10 11
2 11 12
2 12 13
2 13 14
2 14 15
2 15 16
2 16 17
2 17 18
2 18 19
2 19 20
2 20 21
2 21 22
2 22 23
2 23 24
2 24 25
2 25 26
2 26 27
2 27 28
2 28 29
2 29 30
2 30 31
2 31 32
2 32 33
2 33 34
2 34 35
2 35 36
2 36 37
2 37 38
2 38 39
2 39 40
2 40 41
2 41 42
2 42 43
2 43 44
2 44 45
2 45 46
2 46 47
2 47 48
2 48 49
2 49 50
2 50 51
2 51 52
2 52 53
2 53 54
2 54 55
2 55 56
2 56 57
2 57 58
2 58 59
2 59 60
2 60 61
2 61 62
2 62 63
2 63 64
2 64 65
2 65 66
2 66 67
2 67 68
2 68 69
2 69 70
2 70 71
2 71 72
2 72 73
2 73 74
2 74 75
2 75 76
2 76 77
2 77 78
2 78 79
2 79 80
2 80 81
2 81 82
2 82 83
2 83 84
2 84 85
2 85 86
2 86 87
2 87 88
2 88 89
2 89 90
2 90 91
2 91 92
2 92 93
2 93 94
2 94 95
2 95 96
2 96 97
2 97 98
2 98 99
2 99 100
2 100 1

CELL_TYPES 100
3
3
3
3
3
3
3
3
3
3
3
3
3
3
3
3
3
3
3
3
3
3
3
3
3
3
3
3
3
3
3
3
3
3
3
3
3
3
3
3
3
3
3
3
3
3
3
3
3
3
3
3
3
3
3
3
3
3
3
3
3
3
3
3
3
3
3
3
3
3
3
3
3
3
3
3
3
3
3
3
3
3
3
3
3
3
3
3
3
3
3
3
3
3
3
3
3
3
3
3

POINT_DATA 101
SCALARS MODE3_700.9519_Hz float 1
LOOKUP_TABLE default
0.09118681450882947
0.0
0.0009295498158155557
0.09125693601064871
0.17194138989559998
0.24211752563866326
0.3018456195523431
0.35122073437955076
0.39038123783074025
0.41951665093360097
0.4388743930953513
0.44876556566007236
0.44957009940729364
0.4417418422101094
0.4258146254729908
0.40241127590314535
0.37225952663006556
0.3362233383824324
0.2953693905861641
0.25111848097084255
0.20561646596266256
0.16269096357570562
0.13005623241157516
0.12060917064520164
0.14104640074252445
0.18183052404251954
0.23179405068947723
0.284885748156236
0.3380129956007315
0.3893445356842922
0.43761754145211396
0.481865977848573
0.5213081994526352
0.5552979004957344
0.58330211230909
0.6048914241579987
0.6197358915010641
0.6276035512351726
0.6283600213816724
0.6219684288907779
0.608489336141778
0.588080632926178
0.5609976509681489
0.5275941663325547
0.4883256894815294
0.44375796608272994
0.3945871023280649
0.34168649718283334
0.28622005613700674
0.22993578233921122
0.17600162206852357
0.13146020517385276
0.11152536133645088
0.12913436181892646
0.17260862676025518
0.22620397121191704
0.28245858967885845
0.3380496750468379
0.39117005490412865
0.4406290395314782
0.4855384304692499
0.525192157677721
0.5590165711177802
0.5865491445438971
0.6074294550163418
0.6213956605478821
0.6282834004729654
0.6280256487835765
0.6206528188984243
0.6062928400991003
0.5851712192088566
0.5576113922732329
0.5240360817914851
0.484971103285711
0.44105453413311424
0.39305739517941934
0.341929711109961
0.28890568184874604
0.23575651173351375
0.18543283235797672
0.1436548697217123
0.12118229539431824
0.1282696381178451
0.1594916285155639
0.20182602167624572
0.2471426943059258
0.29140944675391245
0.3323935451355953
0.368633604795372
0.3990407355651612
0.4227365221140091
0.43898222122037955
0.4471455589731115
0.44668394946773293
0.4371350665049449
0.4181105778211253
0.3892909677624317
0.35042035767251717
0.30130072125215007
0.24178515649550936
0.1717700734856661

