# vtk DataFile Version 2.0
mesh vtk view
ASCII
DATASET UNSTRUCTURED_GRID
POINTS 101 double
0.007364954245812655 0.0 0.0
2.0 0.0 0.0
0.0199999999999621 -7.507765129817373e-05 0.0
0.0326350457541882 -0.0002888870751398768 0.0
0.04612672002450911 -0.000624306411381452 0.0
0.06047369273476692 -0.0010642589910623604 0.0
0.07567262670182046 -0.0015917619507196628 0.0
0.09171735121582636 -0.002189990129267117 0.0
0.10859816008797253 -0.0028423527665044027 0.0
0.12630123324657677 -0.003532580545685563 0.0
0.14480818044866497 -0.00424482055709232 0.0
0.1640957050757474 -0.004963736806737703 0.0
0.1841353853173464 -0.005674613955328808 0.0
0.20489356933156722 -0.006363462048258006 0.0
0.22633138022556243 -0.007017120088140591 0.0
0.24840482593690164 -0.0076233564074238815 0.0
0.27106500833563046 -0.008170963919685522 0.0
0.29425842512157263 -0.00864984846396252 0.0
0.3179273573763759 -0.00905110860605492 0.0
0.342010334959084 -0.009367105423220118 0.0
0.36644267131940866 -0.009591520972779198 0.0
0.391157058756244 -0.009719404329431261 0.0
0.41608421468024803 -0.009747204268863763 0.0
0.44115356905751446 -0.00967278787474735 0.0
0.4662939829235822 -0.009495444550463718 0.0
0.4914344876696145 -0.009215875123882479 0.0
0.5165050347199462 -0.008836165941049362 0.0
0.5414372452453288 -0.008359748050598767 0.0
0.5661651496906972 -0.007791341782870854 0.0
0.590625907140119 -0.007136887223920625 0.0
0.6147604948932633 -0.006403461272725608 0.0
0.6385143590843405 -0.005599182147870947 0.0
0.6618380177316432 -0.004733102375860228 0.0
0.684687608257903 -0.0038150914451358137 0.0
0.7070253722617084 -0.00285570944621439 0.0
0.7288200711401255 -0.0018660731375443297 0.0
0.7500473270532667 -0.0008577159774564737 0.0
0.7706898846727718 0.00015755625619534862 0.0
0.790737790157114 0.0011678125763035924 0.0
0.8101884848357757 0.002161144904545531 0.0
0.8290468121495553 0.003125815456772344 0.0
0.8473249374731653 0.004050401658661018 0.0
0.8650421815261556 0.004923936879374098 0.0
0.8822247691463985 0.0057360453169464694 0.0
0.8989054962442443 0.006477069435624376 0.0
0.9151233187626807 0.00713818844156512 0.0
0.9309228684274689 0.007711526388081393 0.0
0.946353900969891 0.008190248623673258 0.0
0.9614706833327651 0.008568645433920804 0.0
0.9763313271179077 0.008842201880211538 0.0
0.9909970761913418 0.009007653002379138 0.0
1.0055315569234569 0.009063023726621518 0.0
1.0199999999982035 0.009007653002410252 0.0
1.0344684430729458 0.008842201880272224 0.0
1.0490029238050955 0.008568645434009196 0.0
1.0636686728785694 0.008190248623787233 0.0
1.078529316663738 0.0077115263882185274 0.0
1.0936460990266248 0.007138188441722795 0.0
1.1090771315690489 0.006477069435799832 0.0
1.1248766812338293 0.0057360453171367825 0.0
1.1410945037522489 0.004923936879576295 0.0
1.1577752308500724 0.0040504016588720085 0.0
1.1749578184702894 0.0031258154569890786 0.0
1.1926750625232512 0.002161144904765075 0.0
1.210953187846835 0.0011678125765229937 0.0
1.2298115151605904 0.00015755625641183636 0.0
1.2492622098392319 -0.0008577159772454879 0.0
1.2693101153235593 -0.0018660731373411883 0.0
1.2899526729430584 -0.002855709446021298 0.0
1.3111799288562025 -0.00381509144495467 0.0
1.3329746277346328 -0.004733102375692671 0.0
1.3553123917384615 -0.0055991821477182555 0.0
1.3781619822647573 -0.006403461272588868 0.0
1.4014856409121084 -0.007136887223800569 0.0
1.425239505103247 -0.007791341782767909 0.0
1.4493740928564658 -0.008359748050513005 0.0
1.473834850305977 -0.008836165940980596 0.0
1.498562754751449 -0.00921587512383019 0.0
1.5234949652769483 -0.009495444550427093 0.0
1.5485655123274091 -0.009672787874725346 0.0
1.5737060170735824 -0.00974720426885511 0.0
1.5988464309398012 -0.009719404329434507 0.0
1.623915785317228 -0.009591520972792747 0.0
1.6488429412413965 -0.009367105423242313 0.0
1.6735573286784018 -0.00905110860608404 0.0
1.6979896650388995 -0.008649848463996926 0.0
1.7220726426217732 -0.00817096391972372 0.0
1.745741574876739 -0.0076233564074643986 0.0
1.7689349916628514 -0.007017120088181929 0.0
1.7915951740617533 -0.0063634620482992035 0.0
1.81366861977325 -0.00567461395536911 0.0
1.8351064306673917 -0.004963736806776112 0.0
1.8558646146817495 -0.004244820557127803 0.0
1.8759042949234768 -0.003532580545717305 0.0
1.8951918195506827 -0.00284235276653176 0.0
1.913698766752886 -0.0021899901292895775 0.0
1.9314018399115953 -0.0015917619507369014 0.0
1.9482826487838418 -0.0010642589910745243 0.0
1.9643273732979454 -0.00062430641138907 0.0
1.9795263072650882 -0.00028888707514376267 0.0
1.9938732799754255 -7.507765129929499e-05 0.0

CELLS 100 300
2 0 2
2 2 3
2 3 4
2 4 5
2 5 6
2 6 7
2 7 8
2 8 9
2 9 10
2 10 11
2 11 12
2 12 13
2 13 14
2 14 15
2 15 16
2 16 17
2 17 18
2 18 19
2 19 20
2 20 21
2 21 22
2 22 23
2 23 24
2 24 25
2 25 26
2 26 27
2 27 28
2 28 29
2 29 30
2 30 31
2 31 32
2 32 33
2 33 34
2 34 35
2 35 36
2 36 37
2 37 38
2 38 39
2 39 40
2 40 41
2 41 42
2 42 43
2 43 44
2 44 45
2 45 46
2 46 47
2 47 48
2 48 49
2 49 50
2 50 51
2 51 52
2 52 53
2 53 54
2 54 55
2 55 56
2 56 57
2 57 58
2 58 59
2 59 60
2 60 61
2 61 62
2 62 63
2 63 64
2 64 65
2 65 66
2 66 67
2 67 68
2 68 69
2 69 70
2 70 71
2 71 72
2 72 73
2 73 74
2 74 75
2 75 76
2 76 77
2 77 78
2 78 79
2 79 80
2 80 81
2 81 82
2 82 83
2 83 84
2 84 85
2 85 86
2 86 87
2 87 88
2 88 89
2 89 90
2 90 91
2 91 92
2 92 93
2 93 94
2 94 95
2 95 96
2 96 97
2 97 98
2 98 99
2 99 100
2 100 1

CELL_TYPES 100
3
3
3
3
3
3
3
3
3
3
3
3
3
3
3
3
3
3
3
3
3
3
3
3
3
3
3
3
3
3
3
3
3
3
3
3
3
3
3
3
3
3
3
3
3
3
3
3
3
3
3
3
3
3
3
3
3
3
3
3
3
3
3
3
3
3
3
3
3
3
3
3
3
3
3
3
3
3
3
3
3
3
3
3
3
3
3
3
3
3
3
3
3
3
3
3
3
3
3
3

POINT_DATA 101
SCALARS MODE3_700.9519_Hz float 1
LOOKUP_TABLE default
0.09118681450882947
0.0
0.0009295498158155557
0.09125693601064871
0.17194138989559998
0.24211752563866326
0.3018456195523431
0.35122073437955076
0.39038123783074025
0.41951665093360097
0.4388743930953513
0.44876556566007236
0.44957009940729364
0.4417418422101094
0.4258146254729908
0.40241127590314535
0.37225952663006556
0.3362233383824324
0.2953693905861641
0.25111848097084255
0.20561646596266256
0.16269096357570562
0.13005623241157516
0.12060917064520164
0.14104640074252445
0.18183052404251954
0.23179405068947723
0.284885748156236
0.3380129956007315
0.3893445356842922
0.43761754145211396
0.481865977848573
0.5213081994526352
0.5552979004957344
0.58330211230909
0.6048914241579987
0.6197358915010641
0.6276035512351726
0.6283600213816724
0.6219684288907779
0.608489336141778
0.588080632926178
0.5609976509681489
0.5275941663325547
0.4883256894815294
0.44375796608272994
0.3945871023280649
0.34168649718283334
0.28622005613700674
0.22993578233921122
0.17600162206852357
0.13146020517385276
0.11152536133645088
0.12913436181892646
0.17260862676025518
0.22620397121191704
0.28245858967885845
0.3380496750468379
0.39117005490412865
0.4406290395314782
0.4855384304692499
0.525192157677721
0.5590165711177802
0.5865491445438971
0.6074294550163418
0.6213956605478821
0.6282834004729654
0.6280256487835765
0.6206528188984243
0.6062928400991003
0.5851712192088566
0.5576113922732329
0.5240360817914851
0.484971103285711
0.44105453413311424
0.39305739517941934
0.341929711109961
0.28890568184874604
0.23575651173351375
0.18543283235797672
0.1436548697217123
0.12118229539431824
0.1282696381178451
0.1594916285155639
0.20182602167624572
0.2471426943059258
0.29140944675391245
0.3323935451355953
0.368633604795372
0.3990407355651612
0.4227365221140091
0.43898222122037955
0.4471455589731115
0.44668394946773293
0.4371350665049449
0.4181105778211253
0.3892909677624317
0.35042035767251717
0.30130072125215007
0.24178515649550936
0.1717700734856661

