# vtk DataFile Version 2.0
mesh vtk view
ASCII
DATASET UNSTRUCTURED_GRID
POINTS 101 double
-0.0024549847486042176 0.0 0.0
2.0 0.0 0.0
0.0199999999999621 2.5025883766057906e-05 0.0
0.04245498474850331 9.629569171329223e-05 0.0
0.06462442665834472 0.00020810213712715064 0.0
0.0865087690882021 0.0003547529970207867 0.0
0.10810912443245821 0.0005305873169065542 0.0
0.12942754959439934 0.0007299967097557055 0.0
0.15046727997030288 0.000947450922168134 0.0
0.1712329222507271 0.001177526848561854 0.0
0.19173060651665688 0.0014149401856974396 0.0
0.21196809830758861 0.0016545789355792342 0.0
0.231954871560348 0.001891537985109602 0.0
0.25170214355556436 0.0021211540160860015 0.0
0.27122287325750655 0.0023390400293801963 0.0
0.29053172468698496 0.0025411188024746264 0.0
0.3096449972206641 0.0027236546398951736 0.0
0.3285805249586055 0.0028832828213208395 0.0
0.34735754754026 0.003017036202018306 0.0
0.36599655501261263 0.003122368474406705 0.0
0.3845191095590934 0.0031971736575930653 0.0
0.40294764708007036 0.0032398014431437526 0.0
0.4213052617719912 0.003249068089621254 0.0
0.43961547697949127 0.0032242626249157826 0.0
0.45790200569072403 0.003165148183487905 0.0
0.4761885041086356 0.003071958374627492 0.0
0.4944983217584471 0.002945388647016453 0.0
0.5128542515832417 0.0027865826835329214 0.0
0.5312782834347077 0.0025971139276236175 0.0
0.5497913642848228 0.002378962407973541 0.0
0.5684131683670302 0.0021344870909085355 0.0
0.5871618803032598 0.001866394049290315 0.0
0.6060539940874143 0.001577700791953409 0.0
0.6251041305785833 0.0012716971483786043 0.0
0.6443248759105704 0.0009519031487381298 0.0
0.6637266429510202 0.0006220243791814431 0.0
0.6833175576465618 0.0002859053258188245 0.0
0.7031033717733156 -5.25187520651162e-05 0.0
0.723087403278457 -0.000389270858767864 0.0
0.7432705050521589 -0.0007203816348485102 0.0
0.7636510626141544 -0.0010419384855907812 0.0
0.7842250208395397 -0.0013501338862203388 0.0
0.8049859394884652 -0.001641312293124699 0.0
0.8259250769483063 -0.0019120151056488226 0.0
0.8470315012489467 -0.002159023145208125 0.0
0.8682922270760567 -0.002379396147188373 0.0
0.8896923771877162 -0.0025705087960271305 0.0
0.9112153663401641 -0.0027300828745577517 0.0
0.9328431055524616 -0.0028562151446402673 0.0
0.9545562242906697 -0.002947400626737179 0.0
0.9763343079327805 -0.003002551000793045 0.0
0.9981561476886933 -0.0030210079088738386 0.0
1.019999999997152 -0.0030025510008034164 0.0
1.0418438523056421 -0.002947400626757407 0.0
1.0636656920616627 -0.0028562151446697315 0.0
1.0854437757039075 -0.0027300828745957435 0.0
1.1071568944422554 -0.0025705087960728418 0.0
1.1287846336546972 -0.002379396147240931 0.0
1.150307622807293 -0.00215902314526661 0.0
1.1717077729191037 -0.0019120151057122603 0.0
1.1929684987463665 -0.0016413122931920978 0.0
1.2140749230471626 -0.001350133886290669 0.0
1.235014060507161 -0.001041938485663026 0.0
1.255774979156243 -0.0007203816349216916 0.0
1.2763489373817858 -0.00038927085884099777 0.0
1.296729494943938 -5.251875213727878e-05 0.0
1.3169125967177946 0.0002859053257484959 0.0
1.336896628223088 0.0006220243791137292 0.0
1.3566824423499926 0.0009519031486737658 0.0
1.3762733570456818 0.001271697148318223 0.0
1.3956751240862757 0.0015777007918975564 0.0
1.4148958694184022 0.0018663940492394178 0.0
1.4339460059097076 0.0021344870908629556 0.0
1.4528381196939943 0.002378962407933522 0.0
1.4715868316303524 0.002597113927589302 0.0
1.490208635712682 0.0027865826835043344 0.0
1.5087217165629156 0.002945388646993531 0.0
1.5271457484144955 0.0030719583746100622 0.0
1.5455016782394 0.003165148183475697 0.0
1.5638114958893157 0.0032242626249084478 0.0
1.5820979943073286 0.0032490680896183695 0.0
1.6003845230186595 0.0032398014431448347 0.0
1.6186947382262546 0.003197173657597581 0.0
1.637052352918268 0.0031223684744141034 0.0
1.6554808904393368 0.0030170362020280122 0.0
1.674003444985908 0.002883282821332308 0.0
1.6926424524583543 0.0027236546399079064 0.0
1.7114194750401017 0.002541118802488132 0.0
1.730355002778135 0.0023390400293939757 0.0
1.7494682753119049 0.002121154016099734 0.0
1.7687771267414767 0.001891537985123036 0.0
1.7882978564434988 0.0016545789355920369 0.0
1.8080451284387837 0.0014149401857092674 0.0
1.8280319016916118 0.0011775268485724347 0.0
1.8482693934826138 0.000947450922177253 0.0
1.8687670777486154 0.0007299967097631923 0.0
1.889532720029116 0.0005305873169123003 0.0
1.9105724504051047 0.0003547529970248414 0.0
1.931890875567141 0.00020810213712968995 0.0
1.953491230911496 9.629569171458753e-05 0.0
1.975375573341454 2.5025883766431654e-05 0.0

CELLS 100 300
2 0 2
2 2 3
2 3 4
2 4 5
2 5 6
2 6 7
2 7 8
2 8 9
2 9 10
2 10 11
2 11 12
2 12 13
2 13 14
2 14 15
2 15 16
2 16 17
2 17 18
2 18 19
2 19 20
2 20 21
2 21 22
2 22 23
2 23 24
2 24 25
2 25 26
2 26 27
2 27 28
2 28 29
2 29 30
2 30 31
2 31 32
2 32 33
2 33 34
2 34 35
2 35 36
2 36 37
2 37 38
2 38 39
2 39 40
2 40 41
2 41 42
2 42 43
2 43 44
2 44 45
2 45 46
2 46 47
2 47 48
2 48 49
2 49 50
2 50 51
2 51 52
2 52 53
2 53 54
2 54 55
2 55 56
2 56 57
2 57 58
2 58 59
2 59 60
2 60 61
2 61 62
2 62 63
2 63 64
2 64 65
2 65 66
2 66 67
2 67 68
2 68 69
2 69 70
2 70 71
2 71 72
2 72 73
2 73 74
2 74 75
2 75 76
2 76 77
2 77 78
2 78 79
2 79 80
2 80 81
2 81 82
2 82 83
2 83 84
2 84 85
2 85 86
2 86 87
2 87 88
2 88 89
2 89 90
2 90 91
2 91 92
2 92 93
2 93 94
2 94 95
2 95 96
2 96 97
2 97 98
2 98 99
2 99 100
2 100 1

CELL_TYPES 100
3
3
3
3
3
3
3
3
3
3
3
3
3
3
3
3
3
3
3
3
3
3
3
3
3
3
3
3
3
3
3
3
3
3
3
3
3
3
3
3
3
3
3
3
3
3
3
3
3
3
3
3
3
3
3
3
3
3
3
3
3
3
3
3
3
3
3
3
3
3
3
3
3
3
3
3
3
3
3
3
3
3
3
3
3
3
3
3
3
3
3
3
3
3
3
3
3
3
3
3

POINT_DATA 101
SCALARS MODE3_700.9519_Hz float 1
LOOKUP_TABLE default
0.09118681450882947
0.0
0.0009295498158155557
0.09125693601064871
0.17194138989559998
0.24211752563866326
0.3018456195523431
0.35122073437955076
0.39038123783074025
0.41951665093360097
0.4388743930953513
0.44876556566007236
0.44957009940729364
0.4417418422101094
0.4258146254729908
0.40241127590314535
0.37225952663006556
0.3362233383824324
0.2953693905861641
0.25111848097084255
0.20561646596266256
0.16269096357570562
0.13005623241157516
0.12060917064520164
0.14104640074252445
0.18183052404251954
0.23179405068947723
0.284885748156236
0.3380129956007315
0.3893445356842922
0.43761754145211396
0.481865977848573
0.5213081994526352
0.5552979004957344
0.58330211230909
0.6048914241579987
0.6197358915010641
0.6276035512351726
0.6283600213816724
0.6219684288907779
0.608489336141778
0.588080632926178
0.5609976509681489
0.5275941663325547
0.4883256894815294
0.44375796608272994
0.3945871023280649
0.34168649718283334
0.28622005613700674
0.22993578233921122
0.17600162206852357
0.13146020517385276
0.11152536133645088
0.12913436181892646
0.17260862676025518
0.22620397121191704
0.28245858967885845
0.3380496750468379
0.39117005490412865
0.4406290395314782
0.4855384304692499
0.525192157677721
0.5590165711177802
0.5865491445438971
0.6074294550163418
0.6213956605478821
0.6282834004729654
0.6280256487835765
0.6206528188984243
0.6062928400991003
0.5851712192088566
0.5576113922732329
0.5240360817914851
0.484971103285711
0.44105453413311424
0.39305739517941934
0.341929711109961
0.28890568184874604
0.23575651173351375
0.18543283235797672
0.1436548697217123
0.12118229539431824
0.1282696381178451
0.1594916285155639
0.20182602167624572
0.2471426943059258
0.29140944675391245
0.3323935451355953
0.368633604795372
0.3990407355651612
0.4227365221140091
0.43898222122037955
0.4471455589731115
0.44668394946773293
0.4371350665049449
0.4181105778211253
0.3892909677624317
0.35042035767251717
0.30130072125215007
0.24178515649550936
0.1717700734856661

