# vtk DataFile Version 2.0
mesh vtk view
ASCII
DATASET UNSTRUCTURED_GRID
POINTS 101 double
-0.0004377175708325635 0.0 0.0
2.0 0.0 0.0
0.0199999999999621 4.41188534813172e-06 0.0
0.04043771757074753 1.7369866972003573e-05 0.0
0.06085460983526323 3.8457460610359656e-05 0.0
0.08125067951928479 6.725827573142498e-05 0.0
0.10162593360910029 0.000103356120742527 0.0
0.12198038533408424 0.00014633514680936413 0.0
0.14231405604509423 0.00019578002820185464 0.0
0.16262697698873785 0.0002512761770851087 0.0
0.182919190977638 0.00031240999067677535 0.0
0.20319075395684497 0.0003787691286956915 0.0
0.22344173646659704 0.0004499428190316764 0.0
0.243672225001724 0.0005255221895727121 0.0
0.26388232326803895 0.0006051006241336021 0.0
0.2840721533361877 0.0006882741404398624 0.0
0.3042418566934248 0.000774641788131601 0.0
0.324391595193935 0.0008638060647655385 0.0
0.34452155190844824 0.0009553733478086838 0.0
0.3646319318739328 0.0010489543406341259 0.0
0.3847229627442786 0.0011441645305490006 0.0
0.4047948953430127 0.0012406246569063762 0.0
0.4248480041191758 0.0013379611873766866 0.0
0.4448825875076192 0.0014358068004806713 0.0
0.4648989681950971 0.0015338008725144536 0.0
0.4848974932936487 0.0016315899670285095 0.0
0.5048785344228821 0.00172882832505574 0.0
0.524842487702903 0.001825178354319929 0.0
0.5447897736597433 0.0019203111156942101 0.0
0.5647208370452752 0.002013906805220108 0.0
0.584636146573714 0.0021056552300409872 0.0
0.6045361945769382 0.0021952562766495063 0.0
0.6244214965809703 0.0022824203698967303 0.0
0.6442925908060829 0.0023668689212610304 0.0
0.664150037593111 0.002448334764927654 0.0
0.6839944187586631 0.002526562580284792 0.0
0.7038263368820381 0.0026013092994991763 0.0
0.7236464145267559 0.002672344498893502 0.0
0.7434552933997186 0.002739450772909277 0.0
0.7632536334511208 0.0028024240895020173 0.0
0.7830421119183156 0.0028610741258807974 0.0
0.8028214223169432 0.002915224583571164 0.0
0.8225922733827097 0.002964713481848956 0.0
0.8423553879672849 0.0030093934286628244 0.0
0.8621115018918694 0.0030491318682348174 0.0
0.8818613627620444 0.0030838113046014635 0.0
0.9016057287475913 0.003113329500432062 0.0
0.9213453673310171 0.0031375996505361033 0.0
0.9410810540285837 0.003156550529548281 0.0
0.9608135710876785 0.0031701266133567023 0.0
0.980543706164411 0.0031782881739177964 0.0
1.0002722509853683 0.0031810113471801597 0.0
1.0199999999974314 0.0031782881739184435 0.0
1.0397277490095167 0.0031701266133579535 0.0
1.0594562938305632 0.0031565505295501057 0.0
1.079186428907406 0.00313759965053847 0.0
1.0989189459666122 0.003113329500434943 0.0
1.11865463266429 0.00308381130460483 0.0
1.1383942712478277 0.003049131868238644 0.0
1.158138637233486 0.003009393428667085 0.0
1.1778884981037714 0.0029647134818536138 0.0
1.1976446120284663 0.0029152245835761714 0.0
1.2174077266131518 0.002861074125886113 0.0
1.2371785776790278 0.002802424089507601 0.0
1.256957888077766 0.0027394507729150814 0.0
1.2767463665450713 0.0026723444988994856 0.0
1.296544706596584 0.0026013092995053094 0.0
1.3163535854696569 0.0025265625802910535 0.0
1.3361736631144858 0.0024483347649340193 0.0
1.3560055812379723 0.0023668689212674797 0.0
1.3758499624036358 0.0022824203699032433 0.0
1.3957074091907737 0.002195256276656069 0.0
1.4155785034159978 0.0021056552300475805 0.0
1.4354638054201412 0.0020139068052267214 0.0
1.455363853423477 0.00192031111570083 0.0
1.4752791629520257 0.0018251783543265418 0.0
1.495210226337668 0.001728828325062315 0.0
1.5151575122946188 0.001631589967035017 0.0
1.5351214655747498 0.001533800872520857 0.0
1.5551025067040918 0.0014358068004869332 0.0
1.5751010318027525 0.0013379611873827592 0.0
1.5951174124903393 0.0012406246569122141 0.0
1.6151519958788918 0.0011441645305545597 0.0
1.6352051046551628 0.001048954340639373 0.0
1.6552770372540062 0.000955373347813578 0.0
1.6753680681244612 0.0008638060647700506 0.0
1.695478448090055 0.0007746417881357152 0.0
1.7156084048046778 0.0006882741404435814 0.0
1.7357581433052987 0.0006051006241369262 0.0
1.7559278466626458 0.0005255221895756905 0.0
1.7761176767309033 0.0004499428190343592 0.0
1.796327774997314 0.00037876912869809574 0.0
1.8165582635325261 0.000312409990678906 0.0
1.8368092460423613 0.00025127617708697734 0.0
1.8570808090216513 0.0001957800282034671 0.0
1.8773730230106331 0.0001463351468107173 0.0
1.8976859439543594 0.00010335612074361318 0.0
1.9180196146654573 6.725827573225188e-05 0.0
1.9383740663905358 3.845746061094063e-05 0.0
1.9587493204804465 1.7369866972350518e-05 0.0
1.9791453901645617 4.411885348247162e-06 0.0

CELLS 100 300
2 0 2
2 2 3
2 3 4
2 4 5
2 5 6
2 6 7
2 7 8
2 8 9
2 9 10
2 10 11
2 11 12
2 12 13
2 13 14
2 14 15
2 15 16
2 16 17
2 17 18
2 18 19
2 19 20
2 20 21
2 21 22
2 22 23
2 23 24
2 24 25
2 25 26
2 26 27
2 27 28
2 28 29
2 29 30
2 30 31
2 31 32
2 32 33
2 33 34
2 34 35
2 35 36
2 36 37
2 37 38
2 38 39
2 39 40
2 40 41
2 41 42
2 42 43
2 43 44
2 44 45
2 45 46
2 46 47
2 47 48
2 48 49
2 49 50
2 50 51
2 51 52
2 52 53
2 53 54
2 54 55
2 55 56
2 56 57
2 57 58
2 58 59
2 59 60
2 60 61
2 61 62
2 62 63
2 63 64
2 64 65
2 65 66
2 66 67
2 67 68
2 68 69
2 69 70
2 70 71
2 71 72
2 72 73
2 73 74
2 74 75
2 75 76
2 76 77
2 77 78
2 78 79
2 79 80
2 80 81
2 81 82
2 82 83
2 83 84
2 84 85
2 85 86
2 86 87
2 87 88
2 88 89
2 89 90
2 90 91
2 91 92
2 92 93
2 93 94
2 94 95
2 95 96
2 96 97
2 97 98
2 98 99
2 99 100
2 100 1

CELL_TYPES 100
3
3
3
3
3
3
3
3
3
3
3
3
3
3
3
3
3
3
3
3
3
3
3
3
3
3
3
3
3
3
3
3
3
3
3
3
3
3
3
3
3
3
3
3
3
3
3
3
3
3
3
3
3
3
3
3
3
3
3
3
3
3
3
3
3
3
3
3
3
3
3
3
3
3
3
3
3
3
3
3
3
3
3
3
3
3
3
3
3
3
3
3
3
3
3
3
3
3
3
3

POINT_DATA 101
SCALARS MODE1_129.7118_Hz float 1
LOOKUP_TABLE default
0.017440921832341978
0.0
0.00017579222909343576
0.017454648767402235
0.03408651653507708
0.04990551922648683
0.06491632756269648
0.07912387896685245
0.092533315276368
0.1051500408187359
0.11697979292646944
0.12802871300668378
0.13830341590824888
0.14781105710241743
0.15655939766072438
0.16455686718478058
0.17181262493259128
0.17833661945501716
0.18413964712217293
0.18923340999121144
0.19363057354788382
0.19734482494910216
0.200390932501593
0.20278480723976655
0.2045435676130017
0.20568560846329936
0.20623067566949874
0.20619994805562522
0.20561612840656449
0.20450354569960047
0.20288827093408196
0.20079824920223582
0.19826345085452332
0.19531604471047387
0.19199059615055183
0.18832429244010088
0.1843571965462954
0.18013252866561677
0.17569697118914018
0.1711009872269012
0.16639913424287098
0.16165034185622457
0.15691810557048316
0.15227052577709219
0.14778009491484168
0.143523108922956
0.1395785601829024
0.13602637156227848
0.13294487310931036
0.13040752183992751
0.1284790262712583
0.12721123912259638
0.12663936587360014
0.12677912044578102
0.1276253722036423
0.129152563370621
0.1313168107065372
0.13405927132480921
0.1373101642493914
0.140992836157694
0.14502740036264133
0.14933368017024748
0.15383337629426141
0.15845151163946583
0.16311727791459668
0.16776442991105842
0.1723313637499063
0.17676099139644105
0.18100049628793502
0.18500102993867384
0.18871738922327716
0.19210769898724098
0.19513311403371478
0.1977575474287987
0.19994742752404154
0.20167148334266524
0.2029005564263962
0.20360743646920818
0.20376671777898006
0.20335467361151996
0.20234914558554748
0.20072944563109174
0.19847626819754485
0.19557161072246798
0.19199870062200952
0.18774192730060782
0.18278677788866907
0.17711977560211004
0.17072841977839578
0.16360112678245595
0.15572717109522813
0.1470966260001969
0.13770030337211775
0.1275296921503407
0.11657689515124656
0.10483456394865988
0.09229583164830564
0.0789542435647913
0.06480368630814447
0.049838317674944295
0.03405250998963208

