# vtk DataFile Version 2.0
mesh vtk view
ASCII
DATASET UNSTRUCTURED_GRID
POINTS 101 double
0.0001459058569441878 0.0 0.0
2.0 0.0 0.0
0.0199999999999621 -1.4706284493772396e-06 0.0
0.039854094142983534 -5.789955657334524e-06 0.0
0.059715130054760014 -1.2819153536786548e-05 0.0
0.07958310682669614 -2.2419425243808323e-05 0.0
0.0994580221300316 -3.4452040247508995e-05 0.0
0.11933987155498005 -4.8778382269788035e-05 0.0
0.13922864798459564 -6.526000940061819e-05 0.0
0.15912434100334005 -8.375872569503622e-05 0.0
0.17902693634033254 -0.0001041366635589251 0.0
0.19893641534722276 -0.00012625637623189714 0.0
0.2188527545105978 -0.00014998093967722543 0.0
0.23877592499884545 -0.000175174063190904 0.0
0.25870589224334767 -0.000201700208044534 0.0
0.2786426155538896 -0.0002294247134799541 0.0
0.29858604776806597 -0.0002582139293772003 0.0
0.31853613493448474 -0.0002879353549218461 0.0
0.3384928160295692 -0.0003184577826028945 0.0
0.3584560227076631 -0.00034965144687804187 0.0
0.37842567908413677 -0.0003813881768496668 0.0
0.39840170155114746 -0.0004135415523021253 0.0
0.41838399862568193 -0.0004459870624588955 0.0
0.43837247082945635 -0.00047860226682689034 0.0
0.4583670106002191 -0.0005112669575048178 0.0
0.4783675022339575 -0.0005438633223428363 0.0
0.4983738218574685 -0.0005762761083519133 0.0
0.518385837430717 -0.0006083927847733096 0.0
0.538403408778359 -0.0006401037052314033 0.0
0.5584263876497707 -0.0006713022684067024 0.0
0.5784546178068799 -0.000701885076680329 0.0
0.5984879351390605 -0.0007317520922165019 0.0
0.6185261678043052 -0.0007608067899655766 0.0
0.6385691363958566 -0.0007889563070870101 0.0
0.6586166541334362 -0.0008161115883092179 0.0
0.6786685270781744 -0.0008421875267615971 0.0
0.6987245543703047 -0.0008671030998330585 0.0
0.7187845284886543 -0.0008907814996311672 0.0
0.7388482355309222 -0.0009131502576364255 0.0
0.7589154555137104 -0.0009341413631673389 0.0
0.7789859626912343 -0.0009536913752935989 0.0
0.7990595258916138 -0.0009717415278570544 0.0
0.8191359088696137 -0.0009882378272829853 0.0
0.8392148706746775 -0.001003131142887608 0.0
0.8592961660330717 -0.0010163772894116055 0.0
0.8793795457429355 -0.0010279371015338209 0.0
0.8994647570810087 -0.0010377765001440204 0.0
0.9195515442197888 -0.0010458665501787009 0.0
0.9396396486538554 -0.0010521835098494267 0.0
0.9597288096340795 -0.0010567088711189007 0.0
0.9798187646084241 -0.0010594293913059319 0.0
0.9999092496680562 -0.0010603371157267196 0.0
1.0199999999974094 -0.0010594293913061476 0.0
1.040090750326785 -0.0010567088711193177 0.0
1.0601812353865068 -0.001052183509850035 0.0
1.0802711903609619 -0.0010458665501794898 0.0
1.1003603513412972 -0.0010377765001449808 0.0
1.1204484557754755 -0.0010279371015349432 0.0
1.1405352429143667 -0.001016377289412881 0.0
1.1606204542525513 -0.001003131142889028 0.0
1.1807038339625255 -0.0009882378272845378 0.0
1.2007851293210314 -0.0009717415278587237 0.0
1.2208640911262068 -0.0009536913752953708 0.0
1.2409404741043173 -0.0009341413631692001 0.0
1.2610140373048087 -0.0009131502576383603 0.0
1.2810845444824444 -0.0008907814996331618 0.0
1.3011517644653439 -0.0008671030998351029 0.0
1.3212154715077222 -0.0008421875267636843 0.0
1.3412754456261835 -0.0008161115883113396 0.0
1.3613314729184252 -0.0007889563070891597 0.0
1.3813833458632747 -0.0007608067899677476 0.0
1.4014308636009647 -0.0007317520922186896 0.0
1.4214738321926275 -0.0007018850766825266 0.0
1.4415120648579836 -0.000671302268408907 0.0
1.4615453821902757 -0.00064010370523361 0.0
1.4815736123474954 -0.0006083927847755138 0.0
1.5015965912190188 -0.0005762761083541048 0.0
1.5216141625667723 -0.0005438633223450055 0.0
1.5416261781401328 -0.0005112669575069522 0.0
1.5616324977637548 -0.0004786022668289776 0.0
1.5816329893976053 -0.00044598706246091964 0.0
1.60162752916848 -0.0004135415523040713 0.0
1.6216160013723668 -0.00038138817685151984 0.0
1.6415982984470123 -0.0003496514468797909 0.0
1.6615743209141354 -0.00031845778260452596 0.0
1.6815439772907208 -0.00028793535492335016 0.0
1.701507183968927 -0.0002582139293785717 0.0
1.721463865064122 -0.00022942471348119374 0.0
1.7414139522306527 -0.00020170020804564204 0.0
1.7613573844449406 -0.00017517406319189678 0.0
1.7812941077555924 -0.0001499809396781197 0.0
1.8012240750001913 -0.00012625637623269855 0.0
1.8211472454885247 -0.00010413666355963532 0.0
1.8410635846519836 -8.375872569565909e-05 0.0
1.8609730636589576 -6.526000940115568e-05 0.0
1.880875658996033 -4.877838227023909e-05 0.0
1.9007713520148615 -3.445204024787105e-05 0.0
1.9206601284445661 -2.2419425244083954e-05 0.0
1.940541977869611 -1.2819153536980209e-05 0.0
1.9604168931730432 -5.789955657450172e-06 0.0
1.9802848699450752 -1.4706284494157205e-06 0.0

CELLS 100 300
2 0 2
2 2 3
2 3 4
2 4 5
2 5 6
2 6 7
2 7 8
2 8 9
2 9 10
2 10 11
2 11 12
2 12 13
2 13 14
2 14 15
2 15 16
2 16 17
2 17 18
2 18 19
2 19 20
2 20 21
2 21 22
2 22 23
2 23 24
2 24 25
2 25 26
2 26 27
2 27 28
2 28 29
2 29 30
2 30 31
2 31 32
2 32 33
2 33 34
2 34 35
2 35 36
2 36 37
2 37 38
2 38 39
2 39 40
2 40 41
2 41 42
2 42 43
2 43 44
2 44 45
2 45 46
2 46 47
2 47 48
2 48 49
2 49 50
2 50 51
2 51 52
2 52 53
2 53 54
2 54 55
2 55 56
2 56 57
2 57 58
2 58 59
2 59 60
2 60 61
2 61 62
2 62 63
2 63 64
2 64 65
2 65 66
2 66 67
2 67 68
2 68 69
2 69 70
2 70 71
2 71 72
2 72 73
2 73 74
2 74 75
2 75 76
2 76 77
2 77 78
2 78 79
2 79 80
2 80 81
2 81 82
2 82 83
2 83 84
2 84 85
2 85 86
2 86 87
2 87 88
2 88 89
2 89 90
2 90 91
2 91 92
2 92 93
2 93 94
2 94 95
2 95 96
2 96 97
2 97 98
2 98 99
2 99 100
2 100 1

CELL_TYPES 100
3
3
3
3
3
3
3
3
3
3
3
3
3
3
3
3
3
3
3
3
3
3
3
3
3
3
3
3
3
3
3
3
3
3
3
3
3
3
3
3
3
3
3
3
3
3
3
3
3
3
3
3
3
3
3
3
3
3
3
3
3
3
3
3
3
3
3
3
3
3
3
3
3
3
3
3
3
3
3
3
3
3
3
3
3
3
3
3
3
3
3
3
3
3
3
3
3
3
3
3

POINT_DATA 101
SCALARS MODE1_129.7118_Hz float 1
LOOKUP_TABLE default
0.017440921832341978
0.0
0.00017579222909343576
0.017454648767402235
0.03408651653507708
0.04990551922648683
0.06491632756269648
0.07912387896685245
0.092533315276368
0.1051500408187359
0.11697979292646944
0.12802871300668378
0.13830341590824888
0.14781105710241743
0.15655939766072438
0.16455686718478058
0.17181262493259128
0.17833661945501716
0.18413964712217293
0.18923340999121144
0.19363057354788382
0.19734482494910216
0.200390932501593
0.20278480723976655
0.2045435676130017
0.20568560846329936
0.20623067566949874
0.20619994805562522
0.20561612840656449
0.20450354569960047
0.20288827093408196
0.20079824920223582
0.19826345085452332
0.19531604471047387
0.19199059615055183
0.18832429244010088
0.1843571965462954
0.18013252866561677
0.17569697118914018
0.1711009872269012
0.16639913424287098
0.16165034185622457
0.15691810557048316
0.15227052577709219
0.14778009491484168
0.143523108922956
0.1395785601829024
0.13602637156227848
0.13294487310931036
0.13040752183992751
0.1284790262712583
0.12721123912259638
0.12663936587360014
0.12677912044578102
0.1276253722036423
0.129152563370621
0.1313168107065372
0.13405927132480921
0.1373101642493914
0.140992836157694
0.14502740036264133
0.14933368017024748
0.15383337629426141
0.15845151163946583
0.16311727791459668
0.16776442991105842
0.1723313637499063
0.17676099139644105
0.18100049628793502
0.18500102993867384
0.18871738922327716
0.19210769898724098
0.19513311403371478
0.1977575474287987
0.19994742752404154
0.20167148334266524
0.2029005564263962
0.20360743646920818
0.20376671777898006
0.20335467361151996
0.20234914558554748
0.20072944563109174
0.19847626819754485
0.19557161072246798
0.19199870062200952
0.18774192730060782
0.18278677788866907
0.17711977560211004
0.17072841977839578
0.16360112678245595
0.15572717109522813
0.1470966260001969
0.13770030337211775
0.1275296921503407
0.11657689515124656
0.10483456394865988
0.09229583164830564
0.0789542435647913
0.06480368630814447
0.049838317674944295
0.03405250998963208

