# vtk DataFile Version 2.0
mesh vtk view
ASCII
DATASET UNSTRUCTURED_GRID
POINTS 101 double
0.0018470467637253212 0.0 0.0
2.0 0.0 0.0
0.0199999999999621 1.8722301776143684e-05 0.0
0.04184704676361299 7.287462099570376e-05 0.0
0.06354300842714379 0.00015943595563332893 0.0
0.08508797208861223 0.00027538828092463815 0.0
0.10648215864852716 0.0004177198226268496 0.0
0.12772598157448414 0.0005834294482159193 0.0
0.14882009993218534 0.0007695320614943536 0.0
0.1697654656988731 0.0009730648864946468 0.0
0.19056336538456403 0.0011910945271791016 0.0
0.211215455997546 0.001420724690290502 0.0
0.23172379540328947 0.001659104459829621 0.0
0.2520908671399974 0.0019034370130505207 0.0
0.27231959976921605 0.0021509886695932037 0.0
0.2924133808561309 0.0023990981674332306 0.0
0.31237606569097065 0.002645186061729881 0.0
0.33221198088042125 0.002886764145410474 0.0
0.35192592295577013 0.003121444793441016 0.0
0.3715231521622904 0.0033469501362020037 0.0
0.3910093816122573 0.003561120971213452 0.0
0.41039076200163654 0.0037619253266260957 0.0
0.42967386210762226 0.0039474665944069665 0.0
0.44886564530085254 0.0041159911559840645 0.0
0.46797344232199833 0.004265895428260316 0.0
0.4870049205874132 0.004395732263341951 0.0
0.5059680503024669 0.004504216641028977 0.0
0.5248710676739909 0.004590230599061064 0.0
0.5437224355247452 0.004652827352273825 0.0
0.5625308016229273 0.004691234558169559 0.0
0.5813049550483443 0.004704856692911785 0.0
0.6000537809238948 0.00469327650838232 0.0
0.6187862138463671 0.004656255547659161 0.0
0.6375111903542076 0.0045937337030482655 0.0
0.6562376007717907 0.00450582780759661 0.0
0.6749742407697877 0.004392829257791414 0.0
0.6937297629794761 0.004255200671874219 0.0
0.7125126289952265 0.004093571594832002 0.0
0.7313310620939703 0.003908733267634006 0.0
0.7501930009931894 0.003701632484626027 0.0
0.7691060549599088 0.0034733645691384252 0.0
0.7880774605723591 0.0032251655032749524 0.0
0.8071140404234586 0.002958403253493594 0.0
0.826222164041096 0.002674568338935406 0.0
0.8454077112844677 0.0023752636944727214 0.0
0.8646760384585038 0.0020621938851048452 0.0
0.884031947369813 0.0017371537326011713 0.0
0.9034796575276762 0.0014020164191532924 0.0
0.9230227816725528 0.0010587211362274656 0.0
0.9426643047924346 0.0007092603497862753 0.0
0.9624065667643267 0.0003556667555566437 0.0
0.9822512487343025 4.526321045596792e-14 0.0
1.0021993633250015 -0.0003556667554676217 0.0
1.022251248734356 -0.0007092603497001217 0.0
1.0424065667643676 -0.0010587211361447171 0.0
1.0626643047924416 -0.0014020164190744334 0.0
1.083022781672529 -0.0017371537325266697 0.0
1.1034796575276236 -0.0020621938850350977 0.0
1.1240319473697329 -0.0023752636944080674 0.0
1.144676038458399 -0.002674568338876135 0.0
1.1654077112843397 -0.0029584032534399124 0.0
1.1862221640409487 -0.0032251655032270376 0.0
1.2071140404232943 -0.003473364569096381 0.0
1.228077460572179 -0.0037016324845898932 0.0
1.2491060549597164 -0.003908733267603789 0.0
1.2701930009929874 -0.0040935715948076466 0.0
1.2913310620937601 -0.004255200671855635 0.0
1.3125126289950089 -0.004392829257778467 0.0
1.333729762979254 -0.004505827807589132 0.0
1.3549742407695624 -0.004593733703046047 0.0
1.3762376007715644 -0.004656255547661958 0.0
1.3975111903539816 -0.004693276508389837 0.0
1.4187862138461438 -0.00470485669292371 0.0
1.4400537809236753 -0.004691234558185555 0.0
1.46130495504813 -0.0046528273522935225 0.0
1.482530801622719 -0.004590230599084064 0.0
1.5037224355245462 -0.004504216641054846 0.0
1.5248710676738022 -0.004395732263370226 0.0
1.5459680503022903 -0.004265895428290514 0.0
1.567004920587249 -0.0041159911560156946 0.0
1.5879734423218488 -0.003947466594439518 0.0
1.6088656453007175 -0.003761925326659067 0.0
1.6296738621075026 -0.003561120971246352 0.0
1.6503907620015301 -0.003346950136234392 0.0
1.671009381612164 -0.003121444793472445 0.0
1.6915231521622096 -0.002886764145440566 0.0
1.7119259229556998 -0.002645186061758313 0.0
1.7322119808803562 -0.0023990981674597597 0.0
1.752376065690912 -0.0021509886696175983 0.0
1.7724133808560782 -0.0019034370130727382 0.0
1.792319599769168 -0.0016591044598496746 0.0
1.8120908671399636 -0.0014207246903083302 0.0
1.8317237954032817 -0.0011910945271946412 0.0
1.8512154559975635 -0.0009730648865078949 0.0
1.870563365384606 -0.0007695320615053398 0.0
1.8897654656989373 -0.0005834294482246851 0.0
1.9088200999322702 -0.00041771982263346833 0.0
1.927725981574583 -0.00027538828092929046 0.0
1.9464821586486314 -0.0001594359556362711 0.0
1.9650879720887173 -7.287462099724174e-05 0.0
1.9835430084272514 -1.8722301776600414e-05 0.0

CELLS 100 300
2 0 2
2 2 3
2 3 4
2 4 5
2 5 6
2 6 7
2 7 8
2 8 9
2 9 10
2 10 11
2 11 12
2 12 13
2 13 14
2 14 15
2 15 16
2 16 17
2 17 18
2 18 19
2 19 20
2 20 21
2 21 22
2 22 23
2 23 24
2 24 25
2 25 26
2 26 27
2 27 28
2 28 29
2 29 30
2 30 31
2 31 32
2 32 33
2 33 34
2 34 35
2 35 36
2 36 37
2 37 38
2 38 39
2 39 40
2 40 41
2 41 42
2 42 43
2 43 44
2 44 45
2 45 46
2 46 47
2 47 48
2 48 49
2 49 50
2 50 51
2 51 52
2 52 53
2 53 54
2 54 55
2 55 56
2 56 57
2 57 58
2 58 59
2 59 60
2 60 61
2 61 62
2 62 63
2 63 64
2 64 65
2 65 66
2 66 67
2 67 68
2 68 69
2 69 70
2 70 71
2 71 72
2 72 73
2 73 74
2 74 75
2 75 76
2 76 77
2 77 78
2 78 79
2 79 80
2 80 81
2 81 82
2 82 83
2 83 84
2 84 85
2 85 86
2 86 87
2 87 88
2 88 89
2 89 90
2 90 91
2 91 92
2 92 93
2 93 94
2 94 95
2 95 96
2 96 97
2 97 98
2 98 99
2 99 100
2 100 1

CELL_TYPES 100
3
3
3
3
3
3
3
3
3
3
3
3
3
3
3
3
3
3
3
3
3
3
3
3
3
3
3
3
3
3
3
3
3
3
3
3
3
3
3
3
3
3
3
3
3
3
3
3
3
3
3
3
3
3
3
3
3
3
3
3
3
3
3
3
3
3
3
3
3
3
3
3
3
3
3
3
3
3
3
3
3
3
3
3
3
3
3
3
3
3
3
3
3
3
3
3
3
3
3
3

POINT_DATA 101
SCALARS MODE2_357.5556_Hz float 1
LOOKUP_TABLE default
0.047286102353484766
0.0
0.0004793082099848857
0.04732289249279532
0.09079607896717243
0.13044744030123204
0.16629345773838583
0.19835541971449408
0.22666049192970483
0.25124299903528763
0.27214563402997044
0.28942057331067067
0.303130505257008
0.3133495906637029
0.3201643827907815
0.32367474736673496
0.3239948413615617
0.321254237574437
0.31559932627401455
0.30719519585862326
0.2962283101390978
0.28291049278157593
0.26748505726513716
0.25023648520851965
0.23150603055078986
0.2117172738193954
0.19141821061477587
0.1713494045367726
0.15254655178134377
0.13646189881932477
0.12499592535092693
0.12016009992093138
0.12318804739416565
0.1337548715469426
0.1502801061321636
0.17088535641256222
0.19399791941435293
0.2184616241007869
0.24344940806200918
0.26835741118693857
0.2927276101193405
0.3161984927004184
0.3384749012078226
0.3593097364677153
0.3784928034263513
0.39584395559251817
0.4112088533097836
0.4244563315533143
0.4354767700591346
0.4441810923721761
0.4505001605194831
0.4543844180641611
0.4558036888522922
0.4547470749400612
0.45122292285996396
0.4452588475936952
0.43690182199175076
0.42621835907771893
0.41329483919324195
0.3982380680120258
0.3811762023684398
0.3622602606429601
0.3416665637464795
0.31960066760191974
0.29630371183872767
0.2720627320181373
0.24722754296174537
0.22223853611374536
0.19767221407101615
0.17431323481026575
0.15325603818223776
0.1360009566975483
0.12439244197580805
0.12010782754406896
0.12371289548688717
0.13419176067221472
0.14959461696982387
0.1679735908406134
0.18780591621959375
0.20799910478357247
0.22777381066635924
0.24655662707871953
0.2639071397230031
0.2794725226704446
0.2929599239605213
0.3041196187529446
0.3127345820074011
0.3186139023381833
0.3215885158604762
0.3215083526661086
0.3182403448518977
0.31166695431271246
0.30168500362644024
0.28820466966532154
0.27114854710049324
0.25045071923417916
0.2260557933533335
0.1979178712015664
0.1659994352650392
0.1302701428608854
0.09070555305491611

