# vtk DataFile Version 2.0
mesh vtk view
ASCII
DATASET UNSTRUCTURED_GRID
POINTS 101 double
-0.002770570145587981 0.0 0.0
2.0 0.0 0.0
0.0199999999999621 -2.8083452664215517e-05 0.0
0.03722942985439185 -0.00010931193149355559 0.0
0.05468548735899886 -0.0002391539334499933 0.0
0.07236804186668992 -0.000413082421386957 0.0
0.09027676202670622 -0.0006265797339402742 0.0
0.10841102763766403 -0.0008751441723238786 0.0
0.1267698501010227 -0.00115429809224153 0.0
0.14535180145091411 -0.0014595973297419696 0.0
0.16415495192230123 -0.0017866417907686516 0.0
0.18317681600275182 -0.002131087035435752 0.0
0.20241430689405981 -0.0024886566897444305 0.0
0.2218636992889166 -0.00285515551957578 0.0
0.24152060034497724 -0.003226483004389804 0.0
0.26137992871446397 -0.003598647251149845 0.0
0.28143590146205827 -0.00396777909259482 0.0
0.3016820286777364 -0.0043301462181157095 0.0
0.3221111155645673 -0.004682167190161522 0.0
0.3427152717546406 -0.005020425204303004 0.0
0.3634859275795447 -0.0053416814568201755 0.0
0.3844138569953297 -0.005642887989939141 0.0
0.4054892068362051 -0.005921199891610447 0.0
0.42670153204621386 -0.0061739867339760945 0.0
0.448039836514349 -0.0063988431423904705 0.0
0.46949261911608103 -0.006593598395012923 0.0
0.49104792454335433 -0.006756324961543463 0.0
0.5126933984859222 -0.006885345898591592 0.0
0.5344163467096448 -0.0069792410284107344 0.0
0.556203797562226 -0.0070368518372543355 0.0
0.5780425674239544 -0.007057285039367674 0.0
0.5999193286104825 -0.007039914762573477 0.0
0.6218206792266283 -0.006984383321488739 0.0
0.6437332144647216 -0.006890600554572396 0.0
0.6656435988382012 -0.006758741711394911 0.0
0.6875386388410597 -0.006589243886687118 0.0
0.709405355526381 -0.006382801007811326 0.0
0.7312310565026093 -0.0061403573922480005 0.0
0.7530034068543479 -0.005863099901451007 0.0
0.7747104985053734 -0.005552448726939038 0.0
0.7963409175551485 -0.005210046853707636 0.0
0.8178838091363267 -0.0048377482549124265 0.0
0.8393289393595315 -0.004437604880240389 0.0
0.8606667539329294 -0.004011852508403108 0.0
0.8818884330677262 -0.0035628955417090808 0.0
0.9029859423065261 -0.0030932908276572668 0.0
0.9239520789394162 -0.002605730598901756 0.0
0.9447805137024752 -0.0021030246287299377 0.0
0.9654658274850144 -0.0015880817043411976 0.0
0.9860035428050461 -0.0010638905246794126 0.0
1.006390149847062 -0.0005335001333349654 0.0
1.0266231268920067 -6.789481568395185e-14 0.0
1.046700955006035 0.0005335001332014323 0.0
1.066623126892136 0.001063890524550182 0.0
1.086390149847251 0.001588081704217075 0.0
1.10600354280527 0.002103024628611649 0.0
1.1254658274852716 0.0026057305987900034 0.0
1.1447805137027625 0.003093290827552645 0.0
1.1639520789397304 0.0035628955416120997 0.0
1.182985942306864 0.004011852508314201 0.0
1.201888433068083 0.004437604880159867 0.0
1.2206667539333023 0.004837748254840554 0.0
1.239328939359916 0.005210046853644569 0.0
1.2578838091367188 0.005552448726884838 0.0
1.2763409175555456 0.005863099901405682 0.0
1.2947104985057718 0.006140357392211467 0.0
1.3130034068547447 0.00638280100778345 0.0
1.3312310565030017 0.006589243886667698 0.0
1.3494053555267667 0.006758741711383696 0.0
1.3675386388414361 0.006890600554569067 0.0
1.3856435988385658 0.006984383321492935 0.0
1.4037332144650698 0.007039914762584753 0.0
1.4218206792269594 0.0070572850393855625 0.0
1.4399193286107943 0.007036851837278329 0.0
1.458042567424245 0.006979241028440281 0.0
1.4762037975624913 0.006885345898626094 0.0
1.4944163467098834 0.006756324961582266 0.0
1.5126933984861313 0.0065935983950553365 0.0
1.531047924543532 0.006398843142435768 0.0
1.549492619116224 0.006173986734023539 0.0
1.568039836514457 0.005921199891659274 0.0
1.586701532046286 0.005642887989988599 0.0
1.6054892068362412 0.005341681456869526 0.0
1.62441385699533 0.005020425204351585 0.0
1.6434859275795115 0.004682167190208666 0.0
1.6627152717545757 0.004330146218160847 0.0
1.6821111155644728 0.003967779092637468 0.0
1.7016820286776182 0.0035986472511896385 0.0
1.7214359014619172 0.003226483004426396 0.0
1.7413799287143001 0.002855155519609106 0.0
1.761520600344798 0.0024886566897745106 0.0
1.781863699288735 0.0021310870354624943 0.0
1.8024143068938903 0.001786641790791961 0.0
1.8231768160025996 0.0014595973297618417 0.0
1.8441549519221685 0.0011542980922580092 0.0
1.8653518014508015 0.0008751441723370274 0.0
1.8867698501009345 0.0006265797339502022 0.0
1.908411027637598 0.00041308242139393553 0.0
1.930276762026658 0.00023915393345440658 0.0
1.9523680418666591 0.00010931193149586256 0.0
1.9746854873589903 2.808345266490061e-05 0.0

CELLS 100 300
2 0 2
2 2 3
2 3 4
2 4 5
2 5 6
2 6 7
2 7 8
2 8 9
2 9 10
2 10 11
2 11 12
2 12 13
2 13 14
2 14 15
2 15 16
2 16 17
2 17 18
2 18 19
2 19 20
2 20 21
2 21 22
2 22 23
2 23 24
2 24 25
2 25 26
2 26 27
2 27 28
2 28 29
2 29 30
2 30 31
2 31 32
2 32 33
2 33 34
2 34 35
2 35 36
2 36 37
2 37 38
2 38 39
2 39 40
2 40 41
2 41 42
2 42 43
2 43 44
2 44 45
2 45 46
2 46 47
2 47 48
2 48 49
2 49 50
2 50 51
2 51 52
2 52 53
2 53 54
2 54 55
2 55 56
2 56 57
2 57 58
2 58 59
2 59 60
2 60 61
2 61 62
2 62 63
2 63 64
2 64 65
2 65 66
2 66 67
2 67 68
2 68 69
2 69 70
2 70 71
2 71 72
2 72 73
2 73 74
2 74 75
2 75 76
2 76 77
2 77 78
2 78 79
2 79 80
2 80 81
2 81 82
2 82 83
2 83 84
2 84 85
2 85 86
2 86 87
2 87 88
2 88 89
2 89 90
2 90 91
2 91 92
2 92 93
2 93 94
2 94 95
2 95 96
2 96 97
2 97 98
2 98 99
2 99 100
2 100 1

CELL_TYPES 100
3
3
3
3
3
3
3
3
3
3
3
3
3
3
3
3
3
3
3
3
3
3
3
3
3
3
3
3
3
3
3
3
3
3
3
3
3
3
3
3
3
3
3
3
3
3
3
3
3
3
3
3
3
3
3
3
3
3
3
3
3
3
3
3
3
3
3
3
3
3
3
3
3
3
3
3
3
3
3
3
3
3
3
3
3
3
3
3
3
3
3
3
3
3
3
3
3
3
3
3

POINT_DATA 101
SCALARS MODE2_357.5556_Hz float 1
LOOKUP_TABLE default
0.047286102353484766
0.0
0.0004793082099848857
0.04732289249279532
0.09079607896717243
0.13044744030123204
0.16629345773838583
0.19835541971449408
0.22666049192970483
0.25124299903528763
0.27214563402997044
0.28942057331067067
0.303130505257008
0.3133495906637029
0.3201643827907815
0.32367474736673496
0.3239948413615617
0.321254237574437
0.31559932627401455
0.30719519585862326
0.2962283101390978
0.28291049278157593
0.26748505726513716
0.25023648520851965
0.23150603055078986
0.2117172738193954
0.19141821061477587
0.1713494045367726
0.15254655178134377
0.13646189881932477
0.12499592535092693
0.12016009992093138
0.12318804739416565
0.1337548715469426
0.1502801061321636
0.17088535641256222
0.19399791941435293
0.2184616241007869
0.24344940806200918
0.26835741118693857
0.2927276101193405
0.3161984927004184
0.3384749012078226
0.3593097364677153
0.3784928034263513
0.39584395559251817
0.4112088533097836
0.4244563315533143
0.4354767700591346
0.4441810923721761
0.4505001605194831
0.4543844180641611
0.4558036888522922
0.4547470749400612
0.45122292285996396
0.4452588475936952
0.43690182199175076
0.42621835907771893
0.41329483919324195
0.3982380680120258
0.3811762023684398
0.3622602606429601
0.3416665637464795
0.31960066760191974
0.29630371183872767
0.2720627320181373
0.24722754296174537
0.22223853611374536
0.19767221407101615
0.17431323481026575
0.15325603818223776
0.1360009566975483
0.12439244197580805
0.12010782754406896
0.12371289548688717
0.13419176067221472
0.14959461696982387
0.1679735908406134
0.18780591621959375
0.20799910478357247
0.22777381066635924
0.24655662707871953
0.2639071397230031
0.2794725226704446
0.2929599239605213
0.3041196187529446
0.3127345820074011
0.3186139023381833
0.3215885158604762
0.3215083526661086
0.3182403448518977
0.31166695431271246
0.30168500362644024
0.28820466966532154
0.27114854710049324
0.25045071923417916
0.2260557933533335
0.1979178712015664
0.1659994352650392
0.1302701428608854
0.09070555305491611

