# vtk DataFile Version 2.0
mesh vtk view
ASCII
DATASET UNSTRUCTURED_GRID
POINTS 101 double
-0.0018470467637253206 0.0 0.0
2.0 0.0 0.0
0.0199999999999621 -1.8722301776143677e-05 0.0
0.038152953236236076 -7.287462099570373e-05 0.0
0.056456991572627846 -0.00015943595563332888 0.0
0.07491202791107439 -0.00027538828092463804 0.0
0.0935178413510704 -0.00041771982262684944 0.0
0.11227401842502804 -0.0005834294482159191 0.0
0.13117990006725525 -0.0007695320614943533 0.0
0.15023453430050593 -0.0009730648864946465 0.0
0.1694366346147538 -0.0011910945271791011 0.0
0.18878454400171063 -0.0014207246902905014 0.0
0.20827620459590576 -0.0016591044598296206 0.0
0.22790913285913275 -0.00190343701305052 0.0
0.247680400229825 -0.002150988669593203 0.0
0.26758661914279736 -0.0023990981674332297 0.0
0.2876239343078407 -0.0026451860617298798 0.0
0.30778801911827336 -0.002886764145410473 0.0
0.32807407704280783 -0.0031214447934410153 0.0
0.34847684783617056 -0.0033469501362020024 0.0
0.36899061838608715 -0.003561120971213451 0.0
0.38960923799659103 -0.0037619253266260944 0.0
0.41032613789048855 -0.003947466594406965 0.0
0.4311343546971416 -0.004115991155984063 0.0
0.45202655767587885 -0.004265895428260314 0.0
0.47299507941034746 -0.004395732263341949 0.0
0.49403194969517683 -0.004504216641028976 0.0
0.515128932323536 -0.004590230599061062 0.0
0.536277564472665 -0.004652827352273823 0.0
0.5574691983743663 -0.004691234558169557 0.0
0.5786950449488325 -0.004704856692911783 0.0
0.599946219073165 -0.004693276508382319 0.0
0.621213786150576 -0.004656255547659159 0.0
0.6424888096426188 -0.004593733703048264 0.0
0.6637623992249191 -0.004505827807596608 0.0
0.6850257592268053 -0.004392829257791412 0.0
0.706270237017 -0.0042552006718742175 0.0
0.7274873710011328 -0.004093571594832 0.0
0.7486689379022723 -0.0039087332676340045 0.0
0.7698069990029366 -0.0037016324846260258 0.0
0.7908939450361004 -0.0034733645691384244 0.0
0.8119225394235332 -0.003225165503274951 0.0
0.8328859595723169 -0.0029584032534935925 0.0
0.8537778359545627 -0.0026745683389354053 0.0
0.8745922887110745 -0.0023752636944727205 0.0
0.8953239615369216 -0.0020621938851048444 0.0
0.9159680526254956 -0.0017371537326011707 0.0
0.9365203424675155 -0.001402016419153292 0.0
0.9569772183225221 -0.0010587211362274652 0.0
0.9773356952025238 -0.0007092603497862751 0.0
0.997593433230515 -0.0003556667555566436 0.0
1.017748751260466 -4.5263210455967905e-14 0.0
1.0378006366698285 0.0003556667554676216 0.0
1.05774875126058 0.0007092603497001214 0.0
1.0775934332306742 0.0010587211361447167 0.0
1.0973356952027042 0.0014020164190744328 0.0
1.116977218322723 0.001737153732526669 0.0
1.1365203424677346 0.002062193885035097 0.0
1.155968052625731 0.0023752636944080665 0.0
1.1753239615371711 0.002674568338876134 0.0
1.1945922887113343 0.0029584032534399115 0.0
1.2137778359548315 0.0032251655032270368 0.0
1.2328859595725916 0.00347336456909638 0.0
1.251922539423811 0.003701632484589892 0.0
1.2708939450363796 0.003908733267603788 0.0
1.2898069990032148 0.004093571594807646 0.0
1.3086689379025478 0.004255200671855633 0.0
1.327487371001403 0.004392829257778465 0.0
1.3462702370172641 0.0045058278075891306 0.0
1.3650257592270614 0.004593733703046045 0.0
1.3837623992251655 0.004656255547661957 0.0
1.4024888096428523 0.004693276508389835 0.0
1.4212137861507963 0.004704856692923708 0.0
1.4399462190733705 0.004691234558185553 0.0
1.458695044949022 0.004652827352293521 0.0
1.477469198374537 0.004590230599084063 0.0
1.496277564472816 0.004504216641054845 0.0
1.5151289323236656 0.004395732263370224 0.0
1.5340319496952837 0.004265895428290512 0.0
1.552995079410429 0.004115991156015693 0.0
1.5720265576759354 0.003947466594439516 0.0
1.5911343546971723 0.003761925326659066 0.0
1.6103261378904934 0.003561120971246351 0.0
1.6296092379965699 0.0033469501362343905 0.0
1.648990618386042 0.0031214447934724437 0.0
1.6684768478361023 0.002886764145440565 0.0
1.6880740770427183 0.0026451860617583123 0.0
1.7077880191181658 0.0023990981674597593 0.0
1.7276239343077162 0.0021509886696175974 0.0
1.7475866191426557 0.0019034370130727376 0.0
1.767680400229672 0.001659104459849674 0.0
1.7879091328589805 0.0014207246903083298 0.0
1.8082762045957685 0.0011910945271946408 0.0
1.8287845440015924 0.0009730648865078946 0.0
1.849436634614656 0.0007695320615053395 0.0
1.8702345343004287 0.0005834294482246849 0.0
1.8911799000672016 0.00041771982263346817 0.0
1.912274018424995 0.00027538828092929036 0.0
1.9335178413510528 0.00015943595563627105 0.0
1.9549120279110708 7.287462099724171e-05 0.0
1.9764569915726424 1.8722301776600407e-05 0.0

CELLS 100 300
2 0 2
2 2 3
2 3 4
2 4 5
2 5 6
2 6 7
2 7 8
2 8 9
2 9 10
2 10 11
2 11 12
2 12 13
2 13 14
2 14 15
2 15 16
2 16 17
2 17 18
2 18 19
2 19 20
2 20 21
2 21 22
2 22 23
2 23 24
2 24 25
2 25 26
2 26 27
2 27 28
2 28 29
2 29 30
2 30 31
2 31 32
2 32 33
2 33 34
2 34 35
2 35 36
2 36 37
2 37 38
2 38 39
2 39 40
2 40 41
2 41 42
2 42 43
2 43 44
2 44 45
2 45 46
2 46 47
2 47 48
2 48 49
2 49 50
2 50 51
2 51 52
2 52 53
2 53 54
2 54 55
2 55 56
2 56 57
2 57 58
2 58 59
2 59 60
2 60 61
2 61 62
2 62 63
2 63 64
2 64 65
2 65 66
2 66 67
2 67 68
2 68 69
2 69 70
2 70 71
2 71 72
2 72 73
2 73 74
2 74 75
2 75 76
2 76 77
2 77 78
2 78 79
2 79 80
2 80 81
2 81 82
2 82 83
2 83 84
2 84 85
2 85 86
2 86 87
2 87 88
2 88 89
2 89 90
2 90 91
2 91 92
2 92 93
2 93 94
2 94 95
2 95 96
2 96 97
2 97 98
2 98 99
2 99 100
2 100 1

CELL_TYPES 100
3
3
3
3
3
3
3
3
3
3
3
3
3
3
3
3
3
3
3
3
3
3
3
3
3
3
3
3
3
3
3
3
3
3
3
3
3
3
3
3
3
3
3
3
3
3
3
3
3
3
3
3
3
3
3
3
3
3
3
3
3
3
3
3
3
3
3
3
3
3
3
3
3
3
3
3
3
3
3
3
3
3
3
3
3
3
3
3
3
3
3
3
3
3
3
3
3
3
3
3

POINT_DATA 101
SCALARS MODE2_357.5556_Hz float 1
LOOKUP_TABLE default
0.047286102353484766
0.0
0.0004793082099848857
0.04732289249279532
0.09079607896717243
0.13044744030123204
0.16629345773838583
0.19835541971449408
0.22666049192970483
0.25124299903528763
0.27214563402997044
0.28942057331067067
0.303130505257008
0.3133495906637029
0.3201643827907815
0.32367474736673496
0.3239948413615617
0.321254237574437
0.31559932627401455
0.30719519585862326
0.2962283101390978
0.28291049278157593
0.26748505726513716
0.25023648520851965
0.23150603055078986
0.2117172738193954
0.19141821061477587
0.1713494045367726
0.15254655178134377
0.13646189881932477
0.12499592535092693
0.12016009992093138
0.12318804739416565
0.1337548715469426
0.1502801061321636
0.17088535641256222
0.19399791941435293
0.2184616241007869
0.24344940806200918
0.26835741118693857
0.2927276101193405
0.3161984927004184
0.3384749012078226
0.3593097364677153
0.3784928034263513
0.39584395559251817
0.4112088533097836
0.4244563315533143
0.4354767700591346
0.4441810923721761
0.4505001605194831
0.4543844180641611
0.4558036888522922
0.4547470749400612
0.45122292285996396
0.4452588475936952
0.43690182199175076
0.42621835907771893
0.41329483919324195
0.3982380680120258
0.3811762023684398
0.3622602606429601
0.3416665637464795
0.31960066760191974
0.29630371183872767
0.2720627320181373
0.24722754296174537
0.22223853611374536
0.19767221407101615
0.17431323481026575
0.15325603818223776
0.1360009566975483
0.12439244197580805
0.12010782754406896
0.12371289548688717
0.13419176067221472
0.14959461696982387
0.1679735908406134
0.18780591621959375
0.20799910478357247
0.22777381066635924
0.24655662707871953
0.2639071397230031
0.2794725226704446
0.2929599239605213
0.3041196187529446
0.3127345820074011
0.3186139023381833
0.3215885158604762
0.3215083526661086
0.3182403448518977
0.31166695431271246
0.30168500362644024
0.28820466966532154
0.27114854710049324
0.25045071923417916
0.2260557933533335
0.1979178712015664
0.1659994352650392
0.1302701428608854
0.09070555305491611

