# vtk DataFile Version 2.0
mesh vtk view
ASCII
DATASET UNSTRUCTURED_GRID
POINTS 101 double
0.004909969497208435 0.0 0.0
2.0 0.0 0.0
0.0199999999999621 -5.005176753211581e-05 0.0
0.035090030502766975 -0.00019259138342658447 0.0
0.05075114668296801 -0.0004162042742543013 0.0
0.06698246182312573 -0.0007095059940415734 0.0
0.0837817511344799 -0.0010611746338131083 0.0
0.1011449008104696 -0.001459993419511411 0.0
0.11906544005855513 -0.001894901844336268 0.0
0.13753415549761436 -0.002355053697123708 0.0
0.15653878696566295 -0.002829880371394879 0.0
0.1760638033837077 -0.0033091578711584684 0.0
0.1960902568780968 -0.003783075970219204 0.0
0.21659571288756652 -0.004242308032172003 0.0
0.23755425348354844 -0.004678080058760393 0.0
0.25893655062442245 -0.005082237604949253 0.0
0.2807100055568889 -0.005447309279790347 0.0
0.30283895008083084 -0.005766565642641679 0.0
0.3252849049173469 -0.006034072404036612 0.0
0.3480068899724662 -0.00624473694881341 0.0
0.37096178087932985 -0.0063943473151861305 0.0
0.39410470583720064 -0.006479602886287505 0.0
0.4173894764531838 -0.006498136179242508 0.0
0.44076904603800865 -0.006448525249831565 0.0
0.46419598861536765 -0.00633029636697581 0.0
0.48762299177936974 -0.006143916749254984 0.0
0.5110033564795715 -0.005890777294032906 0.0
0.534291496829807 -0.005573165367065843 0.0
0.5574434331266997 -0.005194227855247235 0.0
0.580417271426295 -0.004757924815947082 0.0
0.6031736632617051 -0.004268974181817071 0.0
0.6256762393890702 -0.00373278809858063 0.0
0.647892011820586 -0.003155401583906818 0.0
0.669791738838073 -0.0025433942967572087 0.0
0.6913502481739239 -0.0019038062974762596 0.0
0.7125467140928492 -0.0012440487583628861 0.0
0.7333648847015906 -0.000571810651637649 0.0
0.7537932564479077 0.0001050375041302324 0.0
0.7738251934374498 0.000778541717535728 0.0
0.7934589898898714 0.0014407632696970204 0.0
0.8126978747657051 0.0020838769711815624 0.0
0.831549958314759 0.0027002677724406775 0.0
0.850028121016733 0.003282624586249398 0.0
0.8681498460968755 0.003824030211297645 0.0
0.8859369974954199 0.00431804629041625 0.0
0.9034155458410247 0.004758792294376746 0.0
0.9206152456175307 0.005141017592054261 0.0
0.9375692673124593 0.0054601657491155035 0.0
0.9543137888876893 0.0057124302892805345 0.0
0.9708875514110982 0.005894801253474358 0.0
0.9873313841267015 0.00600510200158609 0.0
1.003687704614766 0.006042015817747677 0.0
1.0199999999979406 0.006005102001606833 0.0
1.03631229538112 0.005894801253514814 0.0
1.0526686158692373 0.005712430289339463 0.0
1.069112448584904 0.005460165749191487 0.0
1.0856862111083674 0.0051410175921456835 0.0
1.1024307326836429 0.004758792294481862 0.0
1.1193847543786097 0.00431804629053322 0.0
1.136584454155148 0.0038240302114245206 0.0
1.154063002500778 0.0032826245863841956 0.0
1.171850153899345 0.002700267772581338 0.0
1.189971878979507 0.002083876971326052 0.0
1.2084500416814992 0.0014407632698433832 0.0
1.2273021252305725 0.0007785417176819955 0.0
1.2465410101064274 0.00010503750427455755 0.0
1.2661748065588725 -0.0005718106514969918 0.0
1.2862067435484414 -0.0012440487582274585 0.0
1.306635115294792 -0.0019038062973475317 0.0
1.3274532859035724 -0.002543394296636446 0.0
1.3486497518225435 -0.003155401583795113 0.0
1.3702082611584467 -0.0037327880984788357 0.0
1.392107988175995 -0.004268974181725911 0.0
1.4143237606075798 -0.004757924815867044 0.0
1.4368263367350234 -0.005194227855178604 0.0
1.4595827285705198 -0.005573165367008669 0.0
1.4825565668702119 -0.005890777293987062 0.0
1.5057085031672106 -0.0061439167492201244 0.0
1.5289966435175613 -0.006330296366951394 0.0
1.5523770082178858 -0.0064485252498168956 0.0
1.575804011382019 -0.006498136179236739 0.0
1.5992309539595158 -0.006479602886289669 0.0
1.6226105235444848 -0.006394347315195162 0.0
1.6458952941606144 -0.006244736948828207 0.0
1.6690382191186357 -0.0060340724040560244 0.0
1.6919931100256516 -0.005766565642664616 0.0
1.7147150950809185 -0.005447309279815813 0.0
1.7371610499175798 -0.005082237604976264 0.0
1.7592899944416722 -0.004678080058787951 0.0
1.7810634493742912 -0.004242308032199468 0.0
1.8024457465153065 -0.003783075970246072 0.0
1.8234042871114184 -0.0033091578711840737 0.0
1.8439097431210079 -0.0028298803714185347 0.0
1.8639361966155106 -0.0023550536971448694 0.0
1.8834612130336654 -0.001894901844354506 0.0
1.9024658445018183 -0.0014599934195263847 0.0
1.9209345599409755 -0.0010611746338246007 0.0
1.9388550991891575 -0.0007095059940496828 0.0
1.9562182488652444 -0.0004162042742593799 0.0
1.9730175381766901 -0.00019259138342917506 0.0
1.9892488533169326 -5.005176753286331e-05 0.0

CELLS 100 300
2 0 2
2 2 3
2 3 4
2 4 5
2 5 6
2 6 7
2 7 8
2 8 9
2 9 10
2 10 11
2 11 12
2 12 13
2 13 14
2 14 15
2 15 16
2 16 17
2 17 18
2 18 19
2 19 20
2 20 21
2 21 22
2 22 23
2 23 24
2 24 25
2 25 26
2 26 27
2 27 28
2 28 29
2 29 30
2 30 31
2 31 32
2 32 33
2 33 34
2 34 35
2 35 36
2 36 37
2 37 38
2 38 39
2 39 40
2 40 41
2 41 42
2 42 43
2 43 44
2 44 45
2 45 46
2 46 47
2 47 48
2 48 49
2 49 50
2 50 51
2 51 52
2 52 53
2 53 54
2 54 55
2 55 56
2 56 57
2 57 58
2 58 59
2 59 60
2 60 61
2 61 62
2 62 63
2 63 64
2 64 65
2 65 66
2 66 67
2 67 68
2 68 69
2 69 70
2 70 71
2 71 72
2 72 73
2 73 74
2 74 75
2 75 76
2 76 77
2 77 78
2 78 79
2 79 80
2 80 81
2 81 82
2 82 83
2 83 84
2 84 85
2 85 86
2 86 87
2 87 88
2 88 89
2 89 90
2 90 91
2 91 92
2 92 93
2 93 94
2 94 95
2 95 96
2 96 97
2 97 98
2 98 99
2 99 100
2 100 1

CELL_TYPES 100
3
3
3
3
3
3
3
3
3
3
3
3
3
3
3
3
3
3
3
3
3
3
3
3
3
3
3
3
3
3
3
3
3
3
3
3
3
3
3
3
3
3
3
3
3
3
3
3
3
3
3
3
3
3
3
3
3
3
3
3
3
3
3
3
3
3
3
3
3
3
3
3
3
3
3
3
3
3
3
3
3
3
3
3
3
3
3
3
3
3
3
3
3
3
3
3
3
3
3
3

POINT_DATA 101
SCALARS MODE3_700.9519_Hz float 1
LOOKUP_TABLE default
0.09118681450882947
0.0
0.0009295498158155557
0.09125693601064871
0.17194138989559998
0.24211752563866326
0.3018456195523431
0.35122073437955076
0.39038123783074025
0.41951665093360097
0.4388743930953513
0.44876556566007236
0.44957009940729364
0.4417418422101094
0.4258146254729908
0.40241127590314535
0.37225952663006556
0.3362233383824324
0.2953693905861641
0.25111848097084255
0.20561646596266256
0.16269096357570562
0.13005623241157516
0.12060917064520164
0.14104640074252445
0.18183052404251954
0.23179405068947723
0.284885748156236
0.3380129956007315
0.3893445356842922
0.43761754145211396
0.481865977848573
0.5213081994526352
0.5552979004957344
0.58330211230909
0.6048914241579987
0.6197358915010641
0.6276035512351726
0.6283600213816724
0.6219684288907779
0.608489336141778
0.588080632926178
0.5609976509681489
0.5275941663325547
0.4883256894815294
0.44375796608272994
0.3945871023280649
0.34168649718283334
0.28622005613700674
0.22993578233921122
0.17600162206852357
0.13146020517385276
0.11152536133645088
0.12913436181892646
0.17260862676025518
0.22620397121191704
0.28245858967885845
0.3380496750468379
0.39117005490412865
0.4406290395314782
0.4855384304692499
0.525192157677721
0.5590165711177802
0.5865491445438971
0.6074294550163418
0.6213956605478821
0.6282834004729654
0.6280256487835765
0.6206528188984243
0.6062928400991003
0.5851712192088566
0.5576113922732329
0.5240360817914851
0.484971103285711
0.44105453413311424
0.39305739517941934
0.341929711109961
0.28890568184874604
0.23575651173351375
0.18543283235797672
0.1436548697217123
0.12118229539431824
0.1282696381178451
0.1594916285155639
0.20182602167624572
0.2471426943059258
0.29140944675391245
0.3323935451355953
0.368633604795372
0.3990407355651612
0.4227365221140091
0.43898222122037955
0.4471455589731115
0.44668394946773293
0.4371350665049449
0.4181105778211253
0.3892909677624317
0.35042035767251717
0.30130072125215007
0.24178515649550936
0.1717700734856661

