# vtk DataFile Version 2.0
mesh vtk view
ASCII
DATASET UNSTRUCTURED_GRID
POINTS 101 double
0.01472990849162531 0.0 0.0
2.0 0.0 0.0
0.0199999999999621 -0.00015015530259634746 0.0
0.02527009150845186 -0.0005777741502797536 0.0
0.0322534400491324 -0.001248612822762904 0.0
0.04094738546969053 -0.002128517982124721 0.0
0.051345253403842134 -0.0031835239014393257 0.0
0.06343470243189663 -0.004379980258534234 0.0
0.07719632017622477 -0.0056847055330088055 0.0
0.09260246649346401 -0.007065161091371126 0.0
0.10961636089767106 -0.00848964111418464 0.0
0.12819141015186644 -0.009927473613475407 0.0
0.1482707706350952 -0.011349227910657615 0.0
0.16978713866356937 -0.012726924096516013 0.0
0.19266276045160435 -0.014034240176281182 0.0
0.21680965187433915 -0.015246712814847763 0.0
0.2421300166718553 -0.016341927839371044 0.0
0.26851685024379796 -0.01729969692792504 0.0
0.29585471475346276 -0.01810221721210984 0.0
0.3240206699189376 -0.018734210846440235 0.0
0.35288534263964516 -0.019183041945558397 0.0
0.3823141175133743 -0.019438808658862522 0.0
0.4121684293614406 -0.019494408537727527 0.0
0.44230713811603184 -0.0193455757494947 0.0
0.4725879658482258 -0.018990889100927437 0.0
0.5028689753403487 -0.018431750247764958 0.0
0.5330100694410707 -0.017672331882098723 0.0
0.5628744904918941 -0.016719496101197533 0.0
0.5923302993826892 -0.015582683565741709 0.0
0.6212518142815912 -0.01427377444784125 0.0
0.6495209897879383 -0.012806922545451216 0.0
0.677028718170151 -0.011198364295741893 0.0
0.7036760354648148 -0.009466204751720456 0.0
0.7293752165173928 -0.007630182890271627 0.0
0.7540507445250618 -0.00571141889242878 0.0
0.7776401422819544 -0.0037321462750886593 0.0
0.8000946541082955 -0.0017154319549129474 0.0
0.8213797693473639 0.00031511251239069724 0.0
0.8414755803161068 0.0023356251526071847 0.0
0.8603769696734882 0.004322289809091062 0.0
0.878093624301106 0.006251630913544688 0.0
0.8946498749483845 0.008100803317322035 0.0
0.9100843630544234 0.009847873758748196 0.0
0.9244495382949677 0.011472090633892939 0.0
0.9378109924907175 0.012954138871248752 0.0
0.9502466375276487 0.01427637688313024 0.0
0.9618457368572834 0.015423052776162786 0.0
0.9727078019421862 0.016380497247346516 0.0
0.9829413666679927 0.017137290867841607 0.0
0.9926626542383362 0.017684403760423077 0.0
1.001994152385263 0.018015306004758275 0.0
1.0110631138495296 0.018126047453243036 0.0
1.019999999998992 0.018015306004820503 0.0
1.0289368861484234 0.017684403760544448 0.0
1.03800584761267 0.017137290868018393 0.0
1.0473373457595658 0.016380497247574465 0.0
1.05705863332985 0.015423052776437055 0.0
1.0672921980555705 0.01427637688344559 0.0
1.0781542631403656 0.012954138871599664 0.0
1.0897533624698739 0.011472090634273565 0.0
1.1021890075066605 0.00984787375915259 0.0
1.115550461702255 0.008100803317744017 0.0
1.1299156369426355 0.006251630913978157 0.0
1.1453501250485072 0.00432228980953015 0.0
1.1619063756956216 0.0023356251530459874 0.0
1.1796230303230797 0.00031511251282367273 0.0
1.1985244196803095 -0.0017154319544909757 0.0
1.2186202306489127 -0.0037321462746823767 0.0
1.239905345887858 -0.005711418892042596 0.0
1.2623598577140933 -0.00763018288990934 0.0
1.2859492554709007 -0.009466204751385342 0.0
1.3106247834785063 -0.011198364295436511 0.0
1.3363239645310447 -0.012806922545177736 0.0
1.3629712818256938 -0.014273774447601138 0.0
1.3904790102079179 -0.015582683565535818 0.0
1.4187481857143034 -0.01671949610102601 0.0
1.447669700613273 -0.01767233188196119 0.0
1.477125509504164 -0.01843175024766038 0.0
1.5069899305551098 -0.018990889100854186 0.0
1.5371310246559793 -0.019345575749450693 0.0
1.5674120341482727 -0.01949440853771022 0.0
1.5976928618806574 -0.019438808658869013 0.0
1.627831570635458 -0.019183041945585493 0.0
1.6576858824837433 -0.018734210846484627 0.0
1.6871146573577007 -0.01810221721216808 0.0
1.715979330078643 -0.01729969692799385 0.0
1.7441452852443373 -0.01634192783944744 0.0
1.7714831497542172 -0.015246712814928797 0.0
1.7978699833263887 -0.014034240176363857 0.0
1.8231903481241396 -0.012726924096598407 0.0
1.8473372395470797 -0.01134922791073822 0.0
1.8702128613353115 -0.009927473613552224 0.0
1.8917292293639736 -0.008489641114255606 0.0
1.9118085898473756 -0.00706516109143461 0.0
1.9303836391017342 -0.00568470553306352 0.0
1.947397533506089 -0.004379980258579155 0.0
1.9628036798234547 -0.003183523901473803 0.0
1.976565297567895 -0.0021285179821490486 0.0
1.988654746596049 -0.00124861282277814 0.0
1.999052614530282 -0.0005777741502875253 0.0
2.007746559950904 -0.00015015530259858997 0.0

CELLS 100 300
2 0 2
2 2 3
2 3 4
2 4 5
2 5 6
2 6 7
2 7 8
2 8 9
2 9 10
2 10 11
2 11 12
2 12 13
2 13 14
2 14 15
2 15 16
2 16 17
2 17 18
2 18 19
2 19 20
2 20 21
2 21 22
2 22 23
2 23 24
2 24 25
2 25 26
2 26 27
2 27 28
2 28 29
2 29 30
2 30 31
2 31 32
2 32 33
2 33 34
2 34 35
2 35 36
2 36 37
2 37 38
2 38 39
2 39 40
2 40 41
2 41 42
2 42 43
2 43 44
2 44 45
2 45 46
2 46 47
2 47 48
2 48 49
2 49 50
2 50 51
2 51 52
2 52 53
2 53 54
2 54 55
2 55 56
2 56 57
2 57 58
2 58 59
2 59 60
2 60 61
2 61 62
2 62 63
2 63 64
2 64 65
2 65 66
2 66 67
2 67 68
2 68 69
2 69 70
2 70 71
2 71 72
2 72 73
2 73 74
2 74 75
2 75 76
2 76 77
2 77 78
2 78 79
2 79 80
2 80 81
2 81 82
2 82 83
2 83 84
2 84 85
2 85 86
2 86 87
2 87 88
2 88 89
2 89 90
2 90 91
2 91 92
2 92 93
2 93 94
2 94 95
2 95 96
2 96 97
2 97 98
2 98 99
2 99 100
2 100 1

CELL_TYPES 100
3
3
3
3
3
3
3
3
3
3
3
3
3
3
3
3
3
3
3
3
3
3
3
3
3
3
3
3
3
3
3
3
3
3
3
3
3
3
3
3
3
3
3
3
3
3
3
3
3
3
3
3
3
3
3
3
3
3
3
3
3
3
3
3
3
3
3
3
3
3
3
3
3
3
3
3
3
3
3
3
3
3
3
3
3
3
3
3
3
3
3
3
3
3
3
3
3
3
3
3

POINT_DATA 101
SCALARS MODE3_700.9519_Hz float 1
LOOKUP_TABLE default
0.09118681450882947
0.0
0.0009295498158155557
0.09125693601064871
0.17194138989559998
0.24211752563866326
0.3018456195523431
0.35122073437955076
0.39038123783074025
0.41951665093360097
0.4388743930953513
0.44876556566007236
0.44957009940729364
0.4417418422101094
0.4258146254729908
0.40241127590314535
0.37225952663006556
0.3362233383824324
0.2953693905861641
0.25111848097084255
0.20561646596266256
0.16269096357570562
0.13005623241157516
0.12060917064520164
0.14104640074252445
0.18183052404251954
0.23179405068947723
0.284885748156236
0.3380129956007315
0.3893445356842922
0.43761754145211396
0.481865977848573
0.5213081994526352
0.5552979004957344
0.58330211230909
0.6048914241579987
0.6197358915010641
0.6276035512351726
0.6283600213816724
0.6219684288907779
0.608489336141778
0.588080632926178
0.5609976509681489
0.5275941663325547
0.4883256894815294
0.44375796608272994
0.3945871023280649
0.34168649718283334
0.28622005613700674
0.22993578233921122
0.17600162206852357
0.13146020517385276
0.11152536133645088
0.12913436181892646
0.17260862676025518
0.22620397121191704
0.28245858967885845
0.3380496750468379
0.39117005490412865
0.4406290395314782
0.4855384304692499
0.525192157677721
0.5590165711177802
0.5865491445438971
0.6074294550163418
0.6213956605478821
0.6282834004729654
0.6280256487835765
0.6206528188984243
0.6062928400991003
0.5851712192088566
0.5576113922732329
0.5240360817914851
0.484971103285711
0.44105453413311424
0.39305739517941934
0.341929711109961
0.28890568184874604
0.23575651173351375
0.18543283235797672
0.1436548697217123
0.12118229539431824
0.1282696381178451
0.1594916285155639
0.20182602167624572
0.2471426943059258
0.29140944675391245
0.3323935451355953
0.368633604795372
0.3990407355651612
0.4227365221140091
0.43898222122037955
0.4471455589731115
0.44668394946773293
0.4371350665049449
0.4181105778211253
0.3892909677624317
0.35042035767251717
0.30130072125215007
0.24178515649550936
0.1717700734856661

