# vtk DataFile Version 2.0
mesh vtk view
ASCII
DATASET UNSTRUCTURED_GRID
POINTS 101 double
-0.0007295292847209393 0.0 0.0
2.0 0.0 0.0
0.0199999999999621 7.353142246886201e-06 0.0
0.040729529284629536 2.894977828667263e-05 0.0
0.061424349725514846 6.409576768393277e-05 0.0
0.0820844658655791 0.00011209712621904166 0.0
0.10270988934863462 0.00017226020123754503 0.0
0.12330064222363633 0.00024389191134894026 0.0
0.1438567600753435 0.0003263000470030911 0.0
0.16437829498143675 0.0004187936284751813 0.0
0.18486531829629077 0.0005206833177946257 0.0
0.20531792326165607 0.0006312818811594859 0.0
0.22573622744459665 0.0007499046983861275 0.0
0.2461203750031633 0.0008758703159545203 0.0
0.2664705387803846 0.0010085010402226704 0.0
0.2867869222273367 0.001147123567399771 0.0
0.3070697611561042 0.0012910696468860017 0.0
0.32731932532366015 0.001439676774609231 0.0
0.3475359198478878 0.0015922889130144733 0.0
0.36771988645706766 0.0017482572343902102 0.0
0.3878716045743495 0.0019069408842483345 0.0
0.4079914922389453 0.0020677077615106274 0.0
0.4280800068659227 0.002229935312294478 0.0
0.4481376458467007 0.0023930113341344528 0.0
0.4681649469925361 0.0025563347875240897 0.0
0.4881624888234942 0.002719316611714183 0.0
0.5081308907055889 0.002881380541759567 0.0
0.528070812838996 0.003041963923866549 0.0
0.5479829561004356 0.0032005185261570175 0.0
0.5678680617430275 0.0033565113420335134 0.0
0.587726910957131 0.0035094253834016464 0.0
0.6075603242958769 0.003658760461082511 0.0
0.6273691609693028 0.0038040339498278844 0.0
0.6471543180111962 0.003944781535435052 0.0
0.6669167293229483 0.0040805579415460905 0.0
0.6866573645989075 0.004210937633807987 0.0
0.7063772281379048 0.004335515499165295 0.0
0.7260773575458067 0.004453907498155838 0.0
0.7457588223341169 0.004565751288182129 0.0
0.765422722419826 0.004670706815836696 0.0
0.7850701865318562 0.004768456876467996 0.0
0.8047023705296079 0.004858707639285274 0.0
0.8243204556392577 0.004941189136414928 0.0
0.8439256466135887 0.005015655714438042 0.0
0.8635191698212681 0.00508188644705803 0.0
0.8831022712715988 0.005139685507669107 0.0
0.9026762145808825 0.005188882500720104 0.0
0.9222422788866314 0.005229332750893506 0.0
0.9418017567159478 0.005260917549247135 0.0
0.961355951814478 0.0052835443555945055 0.0
0.9809061769424045 0.005297146956529661 0.0
1.0004537516440244 0.005301685578633601 0.0
1.0199999999974425 0.00529714695653074 0.0
1.0395462483508824 0.005283544355596591 0.0
1.0590938230525915 0.005260917549250177 0.0
1.078644048180628 0.005229332750897451 0.0
1.0981982432792696 0.005188882500724906 0.0
1.1177577211086975 0.005139685507674718 0.0
1.1373237854145581 0.005081886447064407 0.0
1.1568977287239537 0.005015655714445143 0.0
1.176480830174394 0.004941189136422691 0.0
1.1960743533821838 0.00485870763929362 0.0
1.2156795443566244 0.004768456876476856 0.0
1.235297629466383 0.004670706815846002 0.0
1.254929813464245 0.004565751288191804 0.0
1.2745772775763848 0.004453907498165811 0.0
1.294241177662204 0.004335515499175516 0.0
1.313922642450624 0.004210937633818423 0.0
1.333622771858637 0.0040805579415567 0.0
1.3533426353977458 0.0039447815354458 0.0
1.3730832706738163 0.00380403394983874 0.0
1.3928456819856783 0.0036587604610934495 0.0
1.412630839027683 0.0035094253834126346 0.0
1.43243967570122 0.0033565113420445363 0.0
1.4522730890400777 0.003200518526168051 0.0
1.4721319382542908 0.0030419639238775703 0.0
1.4920170438969929 0.0028813805417705254 0.0
1.5119291871585419 0.002719316611725029 0.0
1.5318691092920582 0.002556334787534762 0.0
1.5518375111742602 0.002393011334144889 0.0
1.571835053005326 0.002229935312304599 0.0
1.591862354151269 0.0020677077615203574 0.0
1.6119199931321542 0.0019069408842576 0.0
1.6320085077592381 0.0017482572343989551 0.0
1.6521283954239416 0.0015922889130226302 0.0
1.6722801135413312 0.0014396767746167511 0.0
1.692464080150619 0.0012910696468928589 0.0
1.7126806746749559 0.001147123567405969 0.0
1.7329302388426215 0.0010085010402282105 0.0
1.7532130777714985 0.0008758703159594842 0.0
1.7735294612185588 0.0007499046983905988 0.0
1.7938796249958757 0.000631281881163493 0.0
1.8142637725545268 0.0005206833177981769 0.0
1.8346820767375502 0.0004187936284782956 0.0
1.8551346817029981 0.00032630004700577857 0.0
1.8756217050179331 0.00024389191135119553 0.0
1.8961432399241083 0.00017226020123935532 0.0
1.9166993577759028 0.00011209712622041981 0.0
1.9372901106509983 6.409576768490107e-05 0.0
1.957915534134148 2.894977828725087e-05 0.0
1.978575650274305 7.353142247078606e-06 0.0

CELLS 100 300
2 0 2
2 2 3
2 3 4
2 4 5
2 5 6
2 6 7
2 7 8
2 8 9
2 9 10
2 10 11
2 11 12
2 12 13
2 13 14
2 14 15
2 15 16
2 16 17
2 17 18
2 18 19
2 19 20
2 20 21
2 21 22
2 22 23
2 23 24
2 24 25
2 25 26
2 26 27
2 27 28
2 28 29
2 29 30
2 30 31
2 31 32
2 32 33
2 33 34
2 34 35
2 35 36
2 36 37
2 37 38
2 38 39
2 39 40
2 40 41
2 41 42
2 42 43
2 43 44
2 44 45
2 45 46
2 46 47
2 47 48
2 48 49
2 49 50
2 50 51
2 51 52
2 52 53
2 53 54
2 54 55
2 55 56
2 56 57
2 57 58
2 58 59
2 59 60
2 60 61
2 61 62
2 62 63
2 63 64
2 64 65
2 65 66
2 66 67
2 67 68
2 68 69
2 69 70
2 70 71
2 71 72
2 72 73
2 73 74
2 74 75
2 75 76
2 76 77
2 77 78
2 78 79
2 79 80
2 80 81
2 81 82
2 82 83
2 83 84
2 84 85
2 85 86
2 86 87
2 87 88
2 88 89
2 89 90
2 90 91
2 91 92
2 92 93
2 93 94
2 94 95
2 95 96
2 96 97
2 97 98
2 98 99
2 99 100
2 100 1

CELL_TYPES 100
3
3
3
3
3
3
3
3
3
3
3
3
3
3
3
3
3
3
3
3
3
3
3
3
3
3
3
3
3
3
3
3
3
3
3
3
3
3
3
3
3
3
3
3
3
3
3
3
3
3
3
3
3
3
3
3
3
3
3
3
3
3
3
3
3
3
3
3
3
3
3
3
3
3
3
3
3
3
3
3
3
3
3
3
3
3
3
3
3
3
3
3
3
3
3
3
3
3
3
3

POINT_DATA 101
SCALARS MODE1_129.7118_Hz float 1
LOOKUP_TABLE default
0.017440921832341978
0.0
0.00017579222909343576
0.017454648767402235
0.03408651653507708
0.04990551922648683
0.06491632756269648
0.07912387896685245
0.092533315276368
0.1051500408187359
0.11697979292646944
0.12802871300668378
0.13830341590824888
0.14781105710241743
0.15655939766072438
0.16455686718478058
0.17181262493259128
0.17833661945501716
0.18413964712217293
0.18923340999121144
0.19363057354788382
0.19734482494910216
0.200390932501593
0.20278480723976655
0.2045435676130017
0.20568560846329936
0.20623067566949874
0.20619994805562522
0.20561612840656449
0.20450354569960047
0.20288827093408196
0.20079824920223582
0.19826345085452332
0.19531604471047387
0.19199059615055183
0.18832429244010088
0.1843571965462954
0.18013252866561677
0.17569697118914018
0.1711009872269012
0.16639913424287098
0.16165034185622457
0.15691810557048316
0.15227052577709219
0.14778009491484168
0.143523108922956
0.1395785601829024
0.13602637156227848
0.13294487310931036
0.13040752183992751
0.1284790262712583
0.12721123912259638
0.12663936587360014
0.12677912044578102
0.1276253722036423
0.129152563370621
0.1313168107065372
0.13405927132480921
0.1373101642493914
0.140992836157694
0.14502740036264133
0.14933368017024748
0.15383337629426141
0.15845151163946583
0.16311727791459668
0.16776442991105842
0.1723313637499063
0.17676099139644105
0.18100049628793502
0.18500102993867384
0.18871738922327716
0.19210769898724098
0.19513311403371478
0.1977575474287987
0.19994742752404154
0.20167148334266524
0.2029005564263962
0.20360743646920818
0.20376671777898006
0.20335467361151996
0.20234914558554748
0.20072944563109174
0.19847626819754485
0.19557161072246798
0.19199870062200952
0.18774192730060782
0.18278677788866907
0.17711977560211004
0.17072841977839578
0.16360112678245595
0.15572717109522813
0.1470966260001969
0.13770030337211775
0.1275296921503407
0.11657689515124656
0.10483456394865988
0.09229583164830564
0.0789542435647913
0.06480368630814447
0.049838317674944295
0.03405250998963208

