# vtk DataFile Version 2.0
mesh vtk view
ASCII
DATASET UNSTRUCTURED_GRID
POINTS 101 double
0.0004377175708325635 0.0 0.0
2.0 0.0 0.0
0.0199999999999621 -4.41188534813172e-06 0.0
0.039562282429101536 -1.7369866972003573e-05 0.0
0.059145390164508406 -3.8457460610359656e-05 0.0
0.07874932048040183 -6.725827573142498e-05 0.0
0.09837406639049727 -0.000103356120742527 0.0
0.11801961466542794 -0.00014633514680936413 0.0
0.13768594395434636 -0.00019578002820185464 0.0
0.15737302301064116 -0.0002512761770851087 0.0
0.1770808090216798 -0.00031240999067677535 0.0
0.19680924604241165 -0.0003787691286956915 0.0
0.21655826353259816 -0.0004499428190316764 0.0
0.23632777499740618 -0.0005255221895727121 0.0
0.25611767673100205 -0.0006051006241336021 0.0
0.27592784666274056 -0.0006882741404398624 0.0
0.2957581433053866 -0.000774641788131601 0.0
0.3156084048047596 -0.0008638060647655385 0.0
0.3354784480901297 -0.0009553733478086838 0.0
0.3553680681245282 -0.0010489543406341259 0.0
0.37527703725406586 -0.0011441645305490006 0.0
0.39520510465521486 -0.0012406246569063762 0.0
0.41515199587893503 -0.0013379611873766866 0.0
0.43511741249037494 -0.0014358068004806713 0.0
0.4551010318027801 -0.0015338008725144536 0.0
0.47510250670411197 -0.0016315899670285095 0.0
0.4951214655747617 -0.00172882832505574 0.0
0.5151575122946239 -0.001825178354319929 0.0
0.5352102263376668 -0.0019203111156942101 0.0
0.5552791629520184 -0.002013906805220108 0.0
0.5753638534234629 -0.0021056552300409872 0.0
0.5954638054201217 -0.0021952562766495063 0.0
0.6155785034159728 -0.0022824203698967303 0.0
0.6357074091907434 -0.0023668689212610304 0.0
0.6558499624035988 -0.002448334764927654 0.0
0.67600558123793 -0.002526562580284792 0.0
0.696173663114438 -0.0026013092994991763 0.0
0.7163535854696034 -0.002672344498893502 0.0
0.7365447065965239 -0.002739450772909277 0.0
0.7567463665450052 -0.0028024240895020173 0.0
0.7769578880776936 -0.0028610741258807974 0.0
0.7971785776789491 -0.002915224583571164 0.0
0.8174077266130658 -0.002964713481848956 0.0
0.8376446120283738 -0.0030093934286628244 0.0
0.8578884981036728 -0.0030491318682348174 0.0
0.878138637233381 -0.0030838113046014635 0.0
0.8983942712477174 -0.003113329500432062 0.0
0.9186546326641746 -0.0031375996505361033 0.0
0.9389189459664913 -0.003156550529548281 0.0
0.9591864289072799 -0.0031701266133567023 0.0
0.9794562938304306 -0.0031782881739177964 0.0
0.9997277490094001 -0.0031810113471801597 0.0
1.0199999999973985 -0.0031782881739184435 0.0
1.0402722509854194 -0.0031701266133579535 0.0
1.0605437061644787 -0.0031565505295501057 0.0
1.0808135710877398 -0.00313759965053847 0.0
1.1010810540286398 -0.003113329500434943 0.0
1.121345367331068 -0.00308381130460483 0.0
1.1416057287476362 -0.003049131868238644 0.0
1.161861362762084 -0.003009393428667085 0.0
1.1821115018919026 -0.0029647134818536138 0.0
1.202355387967314 -0.0029152245835761714 0.0
1.2225922733827341 -0.002861074125886113 0.0
1.242821422316962 -0.002802424089507601 0.0
1.26304211191833 -0.0027394507729150814 0.0
1.2832536334511309 -0.0026723444988994856 0.0
1.3034552933997239 -0.0026013092995053094 0.0
1.323646414526755 -0.0025265625802910535 0.0
1.3438263368820322 -0.0024483347649340193 0.0
1.3639944187586515 -0.0023668689212674797 0.0
1.3841500375930942 -0.0022824203699032433 0.0
1.4042925908060602 -0.002195256276656069 0.0
1.4244214965809423 -0.0021056552300475805 0.0
1.4445361945769046 -0.0020139068052267214 0.0
1.464636146573675 -0.00192031111570083 0.0
1.4847208370452303 -0.0018251783543265418 0.0
1.504789773659694 -0.001728828325062315 0.0
1.524842487702849 -0.001631589967035017 0.0
1.5448785344228242 -0.001533800872520857 0.0
1.5648974932935862 -0.0014358068004869332 0.0
1.5848989681950316 -0.0013379611873827592 0.0
1.6048825875075505 -0.0012406246569122141 0.0
1.6248480041191042 -0.0011441645305545597 0.0
1.6447948953429372 -0.001048954340639373 0.0
1.6647229627442 -0.000955373347813578 0.0
1.6846319318738507 -0.0008638060647700506 0.0
1.704521551908363 -0.0007746417881357152 0.0
1.7243915951938442 -0.0006882741404435814 0.0
1.7442418566933295 -0.0006051006241369262 0.0
1.7640721533360881 -0.0005255221895756905 0.0
1.7838823232679368 -0.0004499428190343592 0.0
1.80367222500163 -0.00037876912869809574 0.0
1.823441736466524 -0.000312409990678906 0.0
1.8431907539567947 -0.00025127617708697734 0.0
1.8629191909776108 -0.0001957800282034671 0.0
1.882626976988733 -0.0001463351468107173 0.0
1.9023140560451124 -0.00010335612074361318 0.0
1.9219803853341206 -6.725827573225188e-05 0.0
1.9416259336091484 -3.845746061094063e-05 0.0
1.9612506795193416 -1.7369866972350518e-05 0.0
1.9808546098353321 -4.411885348247162e-06 0.0

CELLS 100 300
2 0 2
2 2 3
2 3 4
2 4 5
2 5 6
2 6 7
2 7 8
2 8 9
2 9 10
2 10 11
2 11 12
2 12 13
2 13 14
2 14 15
2 15 16
2 16 17
2 17 18
2 18 19
2 19 20
2 20 21
2 21 22
2 22 23
2 23 24
2 24 25
2 25 26
2 26 27
2 27 28
2 28 29
2 29 30
2 30 31
2 31 32
2 32 33
2 33 34
2 34 35
2 35 36
2 36 37
2 37 38
2 38 39
2 39 40
2 40 41
2 41 42
2 42 43
2 43 44
2 44 45
2 45 46
2 46 47
2 47 48
2 48 49
2 49 50
2 50 51
2 51 52
2 52 53
2 53 54
2 54 55
2 55 56
2 56 57
2 57 58
2 58 59
2 59 60
2 60 61
2 61 62
2 62 63
2 63 64
2 64 65
2 65 66
2 66 67
2 67 68
2 68 69
2 69 70
2 70 71
2 71 72
2 72 73
2 73 74
2 74 75
2 75 76
2 76 77
2 77 78
2 78 79
2 79 80
2 80 81
2 81 82
2 82 83
2 83 84
2 84 85
2 85 86
2 86 87
2 87 88
2 88 89
2 89 90
2 90 91
2 91 92
2 92 93
2 93 94
2 94 95
2 95 96
2 96 97
2 97 98
2 98 99
2 99 100
2 100 1

CELL_TYPES 100
3
3
3
3
3
3
3
3
3
3
3
3
3
3
3
3
3
3
3
3
3
3
3
3
3
3
3
3
3
3
3
3
3
3
3
3
3
3
3
3
3
3
3
3
3
3
3
3
3
3
3
3
3
3
3
3
3
3
3
3
3
3
3
3
3
3
3
3
3
3
3
3
3
3
3
3
3
3
3
3
3
3
3
3
3
3
3
3
3
3
3
3
3
3
3
3
3
3
3
3

POINT_DATA 101
SCALARS MODE1_129.7118_Hz float 1
LOOKUP_TABLE default
0.017440921832341978
0.0
0.00017579222909343576
0.017454648767402235
0.03408651653507708
0.04990551922648683
0.06491632756269648
0.07912387896685245
0.092533315276368
0.1051500408187359
0.11697979292646944
0.12802871300668378
0.13830341590824888
0.14781105710241743
0.15655939766072438
0.16455686718478058
0.17181262493259128
0.17833661945501716
0.18413964712217293
0.18923340999121144
0.19363057354788382
0.19734482494910216
0.200390932501593
0.20278480723976655
0.2045435676130017
0.20568560846329936
0.20623067566949874
0.20619994805562522
0.20561612840656449
0.20450354569960047
0.20288827093408196
0.20079824920223582
0.19826345085452332
0.19531604471047387
0.19199059615055183
0.18832429244010088
0.1843571965462954
0.18013252866561677
0.17569697118914018
0.1711009872269012
0.16639913424287098
0.16165034185622457
0.15691810557048316
0.15227052577709219
0.14778009491484168
0.143523108922956
0.1395785601829024
0.13602637156227848
0.13294487310931036
0.13040752183992751
0.1284790262712583
0.12721123912259638
0.12663936587360014
0.12677912044578102
0.1276253722036423
0.129152563370621
0.1313168107065372
0.13405927132480921
0.1373101642493914
0.140992836157694
0.14502740036264133
0.14933368017024748
0.15383337629426141
0.15845151163946583
0.16311727791459668
0.16776442991105842
0.1723313637499063
0.17676099139644105
0.18100049628793502
0.18500102993867384
0.18871738922327716
0.19210769898724098
0.19513311403371478
0.1977575474287987
0.19994742752404154
0.20167148334266524
0.2029005564263962
0.20360743646920818
0.20376671777898006
0.20335467361151996
0.20234914558554748
0.20072944563109174
0.19847626819754485
0.19557161072246798
0.19199870062200952
0.18774192730060782
0.18278677788866907
0.17711977560211004
0.17072841977839578
0.16360112678245595
0.15572717109522813
0.1470966260001969
0.13770030337211775
0.1275296921503407
0.11657689515124656
0.10483456394865988
0.09229583164830564
0.0789542435647913
0.06480368630814447
0.049838317674944295
0.03405250998963208

