# vtk DataFile Version 2.0
mesh vtk view
ASCII
DATASET UNSTRUCTURED_GRID
POINTS 101 double
-0.012274923743021091 0.0 0.0
2.0 0.0 0.0
0.0199999999999621 0.00012512941883028957 0.0
0.052274923742818426 0.0004814784585664613 0.0
0.08312213329218034 0.0010405106856357534 0.0
0.11254384544163729 0.001773764985103934 0.0
0.140545622163096 0.0026529365845327714 0.0
0.16713774797297232 0.0036499835487785286 0.0
0.19233639985263323 0.004737254610840671 0.0
0.2161646112548774 0.005887634242809272 0.0
0.23865303258464876 0.007074700928487199 0.0
0.25984049153942984 0.008272894677896173 0.0
0.2797743578033496 0.009457689925548012 0.0
0.2985107177795615 0.01060577008043001 0.0
0.31611436628945067 0.011695200146900986 0.0
0.33265862343706826 0.012705594012373136 0.0
0.3482249861056977 0.013618273199475872 0.0
0.36290262479563845 0.0144164141066042 0.0
0.37678773770414414 0.015085181010091533 0.0
0.38998277506614126 0.015611842372033528 0.0
0.4025955477987781 0.015985868287965332 0.0
0.4147382354038967 0.016199007215718767 0.0
0.4265263088637344 0.016245340448106275 0.0
0.43807738490146814 0.01612131312457892 0.0
0.44951002845786586 0.01582574091743953 0.0
0.4609425205476567 0.015359791873137464 0.0
0.4724916087969479 0.014726943235082269 0.0
0.48427125792115455 0.013932913417664611 0.0
0.49639141717871826 0.01298556963811809 0.0
0.5089568214295265 0.011894812039867707 0.0
0.522065841840797 0.01067243545454268 0.0
0.535809401522179 0.009331970246451578 0.0
0.5502699704431855 0.007888503959767047 0.0
0.5655206528992636 0.006358485741893023 0.0
0.5816243795594325 0.0047595157436906505 0.0
0.598633214761915 0.003110121895907216 0.0
0.6165877882398568 0.0014295266290941227 0.0
0.6355168588738594 -0.00026259376032558107 0.0
0.6554370163998 -0.0019463542938393207 0.0
0.6763525252685421 -0.003601908174242552 0.0
0.6982553130787534 -0.005209692427953907 0.0
0.7211251042059141 -0.006750669431101696 0.0
0.7449296974507746 -0.008206561465623497 0.0
0.7696253847502141 -0.009560075528244116 0.0
0.7951575062536491 -0.010795115726040628 0.0
0.8214611353894327 -0.011896980735941866 0.0
0.8484618859479635 -0.012852543980135656 0.0
0.8760768317104373 -0.013650414372788763 0.0
0.9042155277721581 -0.01428107572320134 0.0
0.9327811214634317 -0.014737003133685898 0.0
0.9616715396742191 -0.015012755003965228 0.0
0.9907807384539296 -0.015105039544369198 0.0
1.019999999996101 -0.015012755004017086 0.0
1.0492192615383387 -0.014737003133787039 0.0
1.0783284603182302 -0.014281075723348661 0.0
1.1072188785292454 -0.013650414372978722 0.0
1.1357844722207726 -0.012852543980364211 0.0
1.1639231682827695 -0.011896980736204658 0.0
1.1915381140455372 -0.010795115726333054 0.0
1.2185388646043778 -0.009560075528561304 0.0
1.244842493740484 -0.008206561465960492 0.0
1.2703746152442528 -0.006750669431453347 0.0
1.2950703025440324 -0.005209692428315132 0.0
1.3188748957892347 -0.003601908174608459 0.0
1.3417446869167367 -0.0019463542942049895 0.0
1.3636474747272855 -0.00026259376068639396 0.0
1.3845629835963575 0.00142952662874248 0.0
1.4044831411226169 0.003110121895568647 0.0
1.4234122117569266 0.004759515743368831 0.0
1.4413667852351608 0.006358485741591116 0.0
1.4583756204379186 0.007888503959487784 0.0
1.4744793470983426 0.009331970246197092 0.0
1.4897300295546578 0.010672435454314781 0.0
1.5041905984758805 0.011894812039667614 0.0
1.5179341581574577 0.012985569637946514 0.0
1.5310431785688985 0.013932913417521677 0.0
1.5436085828198542 0.014726943234967657 0.0
1.555728742077542 0.015359791873050314 0.0
1.5675083912018515 0.01582574091737849 0.0
1.579057479451222 0.016121313124542243 0.0
1.5904899715410747 0.016245340448091852 0.0
1.6019226150975179 0.016199007215724176 0.0
1.6134736911352814 0.01598586828798791 0.0
1.625261764595139 0.015611842372070521 0.0
1.6374044522002718 0.015085181010140064 0.0
1.6500172249329168 0.014416414106661545 0.0
1.6632122622949355 0.013618273199539534 0.0
1.6770973752034644 0.012705594012440664 0.0
1.6917750138934184 0.011695200146969882 0.0
1.7073413765620564 0.010605770080498672 0.0
1.7238856337097037 0.009457689925615182 0.0
1.7414892822196057 0.008272894677960187 0.0
1.760225642195818 0.0070747009285463385 0.0
1.7801595084597466 0.005887634242862175 0.0
1.801346967414545 0.004737254610886267 0.0
1.8238353887443448 0.0036499835488159626 0.0
1.8476636001466369 0.0026529365845615023 0.0
1.8728622520263674 0.0017737649851242074 0.0
1.8994543778363364 0.00104051068564845 0.0
1.927456154557904 0.0004814784585729378 0.0
1.9568778667074826 0.0001251294188321583 0.0

CELLS 100 300
2 0 2
2 2 3
2 3 4
2 4 5
2 5 6
2 6 7
2 7 8
2 8 9
2 9 10
2 10 11
2 11 12
2 12 13
2 13 14
2 14 15
2 15 16
2 16 17
2 17 18
2 18 19
2 19 20
2 20 21
2 21 22
2 22 23
2 23 24
2 24 25
2 25 26
2 26 27
2 27 28
2 28 29
2 29 30
2 30 31
2 31 32
2 32 33
2 33 34
2 34 35
2 35 36
2 36 37
2 37 38
2 38 39
2 39 40
2 40 41
2 41 42
2 42 43
2 43 44
2 44 45
2 45 46
2 46 47
2 47 48
2 48 49
2 49 50
2 50 51
2 51 52
2 52 53
2 53 54
2 54 55
2 55 56
2 56 57
2 57 58
2 58 59
2 59 60
2 60 61
2 61 62
2 62 63
2 63 64
2 64 65
2 65 66
2 66 67
2 67 68
2 68 69
2 69 70
2 70 71
2 71 72
2 72 73
2 73 74
2 74 75
2 75 76
2 76 77
2 77 78
2 78 79
2 79 80
2 80 81
2 81 82
2 82 83
2 83 84
2 84 85
2 85 86
2 86 87
2 87 88
2 88 89
2 89 90
2 90 91
2 91 92
2 92 93
2 93 94
2 94 95
2 95 96
2 96 97
2 97 98
2 98 99
2 99 100
2 100 1

CELL_TYPES 100
3
3
3
3
3
3
3
3
3
3
3
3
3
3
3
3
3
3
3
3
3
3
3
3
3
3
3
3
3
3
3
3
3
3
3
3
3
3
3
3
3
3
3
3
3
3
3
3
3
3
3
3
3
3
3
3
3
3
3
3
3
3
3
3
3
3
3
3
3
3
3
3
3
3
3
3
3
3
3
3
3
3
3
3
3
3
3
3
3
3
3
3
3
3
3
3
3
3
3
3

POINT_DATA 101
SCALARS MODE3_700.9519_Hz float 1
LOOKUP_TABLE default
0.09118681450882947
0.0
0.0009295498158155557
0.09125693601064871
0.17194138989559998
0.24211752563866326
0.3018456195523431
0.35122073437955076
0.39038123783074025
0.41951665093360097
0.4388743930953513
0.44876556566007236
0.44957009940729364
0.4417418422101094
0.4258146254729908
0.40241127590314535
0.37225952663006556
0.3362233383824324
0.2953693905861641
0.25111848097084255
0.20561646596266256
0.16269096357570562
0.13005623241157516
0.12060917064520164
0.14104640074252445
0.18183052404251954
0.23179405068947723
0.284885748156236
0.3380129956007315
0.3893445356842922
0.43761754145211396
0.481865977848573
0.5213081994526352
0.5552979004957344
0.58330211230909
0.6048914241579987
0.6197358915010641
0.6276035512351726
0.6283600213816724
0.6219684288907779
0.608489336141778
0.588080632926178
0.5609976509681489
0.5275941663325547
0.4883256894815294
0.44375796608272994
0.3945871023280649
0.34168649718283334
0.28622005613700674
0.22993578233921122
0.17600162206852357
0.13146020517385276
0.11152536133645088
0.12913436181892646
0.17260862676025518
0.22620397121191704
0.28245858967885845
0.3380496750468379
0.39117005490412865
0.4406290395314782
0.4855384304692499
0.525192157677721
0.5590165711177802
0.5865491445438971
0.6074294550163418
0.6213956605478821
0.6282834004729654
0.6280256487835765
0.6206528188984243
0.6062928400991003
0.5851712192088566
0.5576113922732329
0.5240360817914851
0.484971103285711
0.44105453413311424
0.39305739517941934
0.341929711109961
0.28890568184874604
0.23575651173351375
0.18543283235797672
0.1436548697217123
0.12118229539431824
0.1282696381178451
0.1594916285155639
0.20182602167624572
0.2471426943059258
0.29140944675391245
0.3323935451355953
0.368633604795372
0.3990407355651612
0.4227365221140091
0.43898222122037955
0.4471455589731115
0.44668394946773293
0.4371350665049449
0.4181105778211253
0.3892909677624317
0.35042035767251717
0.30130072125215007
0.24178515649550936
0.1717700734856661

