# vtk DataFile Version 2.0
mesh vtk view
ASCII
DATASET UNSTRUCTURED_GRID
POINTS 101 double
0.0027705701455879813 0.0 0.0
2.0 0.0 0.0
0.0199999999999621 2.8083452664215524e-05 0.0
0.042770570145457217 0.00010931193149355561 0.0
0.06531451264077277 0.00023915393344999336 0.0
0.08763195813299669 0.0004130824213869571 0.0
0.10972323797289134 0.0006265797339402743 0.0
0.13158897236184816 0.0008751441723238788 0.0
0.15323014989841788 0.0011542980922415302 0.0
0.1746481985484649 0.00145959732974197 0.0
0.19584504807701658 0.001786641790768652 0.0
0.2168231839965048 0.0021310870354357527 0.0
0.2375856931051354 0.002488656689744431 0.0
0.2581363007102136 0.0028551555195757807 0.0
0.27847939965406376 0.003226483004389805 0.0
0.2986200712844643 0.0035986472511498452 0.0
0.3185640985367531 0.003967779092594821 0.0
0.3383179713209582 0.00433014621811571 0.0
0.3578888844340107 0.004682167190161524 0.0
0.37728472824382037 0.0050204252043030044 0.0
0.39651407241879977 0.005341681456820177 0.0
0.4155861430028979 0.005642887989939143 0.0
0.4345107931619057 0.005921199891610449 0.0
0.4532984679517803 0.006173986733976095 0.0
0.4719601634835282 0.006398843142390472 0.0
0.4905073808816796 0.006593598395012925 0.0
0.5089520754542894 0.006756324961543465 0.0
0.5273066015116047 0.006885345898591594 0.0
0.5455836532877654 0.006979241028410736 0.0
0.5637962024350676 0.007036851837254337 0.0
0.5819574325732224 0.007057285039367676 0.0
0.6000806713865774 0.007039914762573479 0.0
0.6181793207703148 0.0069843833214887395 0.0
0.6362667855321047 0.006890600554572397 0.0
0.6543564011585086 0.006758741711394913 0.0
0.6724613611555333 0.006589243886687119 0.0
0.6905946444700951 0.0063828010078113276 0.0
0.70876894349375 0.006140357392248002 0.0
0.7269965931418947 0.0058630999014510085 0.0
0.7452895014907526 0.00555244872693904 0.0
0.7636590824408608 0.005210046853707637 0.0
0.7821161908595655 0.004837748254912427 0.0
0.800671060636244 0.00443760488024039 0.0
0.8193332460627294 0.0040118525084031085 0.0
0.838111566927816 0.0035628955417090816 0.0
0.8570140576888994 0.003093290827657267 0.0
0.8760479210558925 0.0026057305989017564 0.0
0.8952194862927164 0.002103024628729938 0.0
0.9145341725100605 0.001588081704341198 0.0
0.9339964571899123 0.0010638905246794128 0.0
0.9536098501477797 0.0005335001333349655 0.0
0.9733768731027617 6.789481568395187e-14 0.0
0.9932990449887947 -0.0005335001332014325 0.0
1.0133768731028001 -0.0010638905245501822 0.0
1.0336098501477908 -0.0015880817042170754 0.0
1.053996457189876 -0.0021030246286116495 0.0
1.0745341725099804 -0.0026057305987900042 0.0
1.0952194862925957 -0.0030932908275526456 0.0
1.1160479210557335 -0.0035628955416121006 0.0
1.137014057688706 -0.004011852508314202 0.0
1.158111566927591 -0.004437604880159868 0.0
1.179333246062478 -0.004837748254840556 0.0
1.2006710606359698 -0.00521004685364457 0.0
1.222116190859271 -0.0055524487268848385 0.0
1.2436590824405505 -0.005863099901405683 0.0
1.2652895014904304 -0.006140357392211469 0.0
1.2869965931415632 -0.006382801007783451 0.0
1.3087689434934102 -0.006589243886667699 0.0
1.3305946444697514 -0.006758741711383698 0.0
1.3524613611551877 -0.006890600554569069 0.0
1.3743564011581642 -0.006984383321492937 0.0
1.396266785531764 -0.0070399147625847544 0.0
1.4181793207699807 -0.007057285039385563 0.0
1.4400806713862515 -0.007036851837278331 0.0
1.461957432572907 -0.006979241028440283 0.0
1.4837962024347646 -0.006885345898626096 0.0
1.5055836532874787 -0.006756324961582268 0.0
1.5273066015113366 -0.006593598395055337 0.0
1.548952075454042 -0.0063988431424357685 0.0
1.570507380881454 -0.006173986734023541 0.0
1.5919601634833271 -0.005921199891659275 0.0
1.6132984679516038 -0.0056428879899886 0.0
1.6345107931617548 -0.0053416814568695275 0.0
1.65558614300277 -0.005020425204351587 0.0
1.6765140724186947 -0.004682167190208667 0.0
1.6972847282437362 -0.004330146218160848 0.0
1.7178888844339453 -0.003967779092637469 0.0
1.7383179713209038 -0.0035986472511896394 0.0
1.758564098536711 -0.003226483004426397 0.0
1.7786200712844338 -0.002855155519609107 0.0
1.798479399654042 -0.0024886566897745115 0.0
1.8181363007102092 -0.0021310870354624947 0.0
1.83758569310516 -0.0017866417907919613 0.0
1.8568231839965563 -0.0014595973297618422 0.0
1.8758450480770936 -0.0011542980922580096 0.0
1.8946481985485646 -0.0008751441723370276 0.0
1.9132301498985376 -0.0006265797339502024 0.0
1.93158897236198 -0.00041308242139393564 0.0
1.949723237973026 -0.00023915393345440663 0.0
1.967631958133129 -0.00010931193149586259 0.0
1.9853145126409035 -2.8083452664900618e-05 0.0

CELLS 100 300
2 0 2
2 2 3
2 3 4
2 4 5
2 5 6
2 6 7
2 7 8
2 8 9
2 9 10
2 10 11
2 11 12
2 12 13
2 13 14
2 14 15
2 15 16
2 16 17
2 17 18
2 18 19
2 19 20
2 20 21
2 21 22
2 22 23
2 23 24
2 24 25
2 25 26
2 26 27
2 27 28
2 28 29
2 29 30
2 30 31
2 31 32
2 32 33
2 33 34
2 34 35
2 35 36
2 36 37
2 37 38
2 38 39
2 39 40
2 40 41
2 41 42
2 42 43
2 43 44
2 44 45
2 45 46
2 46 47
2 47 48
2 48 49
2 49 50
2 50 51
2 51 52
2 52 53
2 53 54
2 54 55
2 55 56
2 56 57
2 57 58
2 58 59
2 59 60
2 60 61
2 61 62
2 62 63
2 63 64
2 64 65
2 65 66
2 66 67
2 67 68
2 68 69
2 69 70
2 70 71
2 71 72
2 72 73
2 73 74
2 74 75
2 75 76
2 76 77
2 77 78
2 78 79
2 79 80
2 80 81
2 81 82
2 82 83
2 83 84
2 84 85
2 85 86
2 86 87
2 87 88
2 88 89
2 89 90
2 90 91
2 91 92
2 92 93
2 93 94
2 94 95
2 95 96
2 96 97
2 97 98
2 98 99
2 99 100
2 100 1

CELL_TYPES 100
3
3
3
3
3
3
3
3
3
3
3
3
3
3
3
3
3
3
3
3
3
3
3
3
3
3
3
3
3
3
3
3
3
3
3
3
3
3
3
3
3
3
3
3
3
3
3
3
3
3
3
3
3
3
3
3
3
3
3
3
3
3
3
3
3
3
3
3
3
3
3
3
3
3
3
3
3
3
3
3
3
3
3
3
3
3
3
3
3
3
3
3
3
3
3
3
3
3
3
3

POINT_DATA 101
SCALARS MODE2_357.5556_Hz float 1
LOOKUP_TABLE default
0.047286102353484766
0.0
0.0004793082099848857
0.04732289249279532
0.09079607896717243
0.13044744030123204
0.16629345773838583
0.19835541971449408
0.22666049192970483
0.25124299903528763
0.27214563402997044
0.28942057331067067
0.303130505257008
0.3133495906637029
0.3201643827907815
0.32367474736673496
0.3239948413615617
0.321254237574437
0.31559932627401455
0.30719519585862326
0.2962283101390978
0.28291049278157593
0.26748505726513716
0.25023648520851965
0.23150603055078986
0.2117172738193954
0.19141821061477587
0.1713494045367726
0.15254655178134377
0.13646189881932477
0.12499592535092693
0.12016009992093138
0.12318804739416565
0.1337548715469426
0.1502801061321636
0.17088535641256222
0.19399791941435293
0.2184616241007869
0.24344940806200918
0.26835741118693857
0.2927276101193405
0.3161984927004184
0.3384749012078226
0.3593097364677153
0.3784928034263513
0.39584395559251817
0.4112088533097836
0.4244563315533143
0.4354767700591346
0.4441810923721761
0.4505001605194831
0.4543844180641611
0.4558036888522922
0.4547470749400612
0.45122292285996396
0.4452588475936952
0.43690182199175076
0.42621835907771893
0.41329483919324195
0.3982380680120258
0.3811762023684398
0.3622602606429601
0.3416665637464795
0.31960066760191974
0.29630371183872767
0.2720627320181373
0.24722754296174537
0.22223853611374536
0.19767221407101615
0.17431323481026575
0.15325603818223776
0.1360009566975483
0.12439244197580805
0.12010782754406896
0.12371289548688717
0.13419176067221472
0.14959461696982387
0.1679735908406134
0.18780591621959375
0.20799910478357247
0.22777381066635924
0.24655662707871953
0.2639071397230031
0.2794725226704446
0.2929599239605213
0.3041196187529446
0.3127345820074011
0.3186139023381833
0.3215885158604762
0.3215083526661086
0.3182403448518977
0.31166695431271246
0.30168500362644024
0.28820466966532154
0.27114854710049324
0.25045071923417916
0.2260557933533335
0.1979178712015664
0.1659994352650392
0.1302701428608854
0.09070555305491611

