# vtk DataFile Version 2.0
mesh vtk view
ASCII
DATASET UNSTRUCTURED_GRID
POINTS 101 double
-0.004617616909313303 0.0 0.0
2.0 0.0 0.0
0.0199999999999621 -4.680575444035921e-05 0.0
0.03538238309070339 -0.00018218655248925937 0.0
0.05114247893174089 -0.0003985898890833223 0.0
0.067280069777921 -0.0006884707023115952 0.0
0.08379460337797784 -0.0010442995565671238 0.0
0.10068504606293598 -0.0014585736205397983 0.0
0.11794975016855766 -0.0019238301537358837 0.0
0.13558633575173054 -0.0024326622162366167 0.0
0.15359158653739613 -0.0029777363179477536 0.0
0.17196136000483414 -0.0035518117257262545 0.0
0.19069051149036798 -0.004147761149574053 0.0
0.20977283214848427 -0.004758592532626301 0.0
0.2292010005752817 -0.005377471673983009 0.0
0.24896654785779718 -0.005997745418583076 0.0
0.2690598357704933 -0.006612965154324702 0.0
0.28947004779666247 -0.007216910363526184 0.0
0.31018519260808614 -0.00780361198360254 0.0
0.3311921195915807 -0.008367375340505008 0.0
0.3524765459664596 -0.008902802428033629 0.0
0.37402309499280695 -0.009404813316565239 0.0
0.39581534472763824 -0.009868666486017415 0.0
0.4178358867443584 -0.01028997788996016 0.0
0.44006639419128923 -0.010664738570650787 0.0
0.4624876985275482 -0.010989330658354876 0.0
0.4850798742397093 -0.011260541602572442 0.0
0.5078223308106947 -0.011475576497652656 0.0
0.5306939111836046 -0.011632068380684561 0.0
0.5536729959379455 -0.011728086395423897 0.0
0.5767376123741985 -0.011762141732279461 0.0
0.5998655476851176 -0.0117331912709558 0.0
0.6230344653787327 -0.011640638869147901 0.0
0.6462220241089274 -0.011484334257620663 0.0
0.6694059980647655 -0.011264569518991522 0.0
0.6925643980695685 -0.010982073144478533 0.0
0.7156755925451429 -0.010638001679685547 0.0
0.7387184275055625 -0.010233928987080004 0.0
0.7616723447584989 -0.009771833169085014 0.0
0.784517497510247 -0.009254081211565067 0.0
0.8072348625932443 -0.008683411422846062 0.0
0.8298063485619139 -0.00806291375818738 0.0
0.8522148989339606 -0.007396008133733984 0.0
0.8744445898896626 -0.006686420847338515 0.0
0.8964807217810296 -0.005938159236181803 0.0
0.918309903845735 -0.0051554847127621125 0.0
0.9399201315672575 -0.0043428843315029275 0.0
0.9613008561723948 -0.0035050410478832308 0.0
0.9824430458099991 -0.0026468028405686635 0.0
1.0033392380100907 -0.0017731508744656883 0.0
1.023983583080156 -0.0008891668888916091 0.0
1.0443718781550884 -1.1315802613991979e-13 0.0
1.0645015916784488 0.0008891668886690542 0.0
1.084371878155248 0.001773150874250304 0.0
1.1039835830804043 0.0026468028403617925 0.0
1.1233392380104013 0.003505041047686083 0.0
1.1424430458103685 0.004342884331316674 0.0
1.161300856172818 0.005155484712587743 0.0
1.1799201315677295 0.005938159236020168 0.0
1.1983099038462501 0.006686420847190337 0.0
1.2164807217815803 0.0073960081335997805 0.0
1.2344445898902436 0.008062913758067593 0.0
1.2522148989345647 0.008683411422740952 0.0
1.2698063485625348 0.009254081211474733 0.0
1.2872348625938772 0.009771833169009472 0.0
1.3045174975108855 0.010233928987019116 0.0
1.3216723447591385 0.010638001679639086 0.0
1.3387184275061987 0.010982073144446167 0.0
1.3556755925457717 0.01126456951897283 0.0
1.3725643980701856 0.011484334257615116 0.0
1.3894059980653664 0.011640638869154896 0.0
1.4062220241095051 0.011733191270974592 0.0
1.4230344653792857 0.011762141732309274 0.0
1.439865547685642 0.011728086395463886 0.0
1.456737612374691 0.011632068380733806 0.0
1.4736729959384003 0.01147557649771016 0.0
1.4906939111840183 0.011260541602637114 0.0
1.507822330811063 0.010989330658425564 0.0
1.5250798742400287 0.010664738570726282 0.0
1.5424876985278138 0.010289977890039236 0.0
1.5600663941915003 0.009868666486098793 0.0
1.5778358867445135 0.009404813316647668 0.0
1.5958153447277368 0.00890280242811588 0.0
1.6140230949928498 0.00836737534058598 0.0
1.6324765459664505 0.007803611983681112 0.0
1.651192119591522 0.007216910363601415 0.0
1.670185192607982 0.006612965154395782 0.0
1.689470047796523 0.0059977454186493995 0.0
1.7090598357703193 0.005377471674043995 0.0
1.7289665478575889 0.004758592532681845 0.0
1.74920100057505 0.004147761149624186 0.0
1.7697728321482433 0.003551811725770825 0.0
1.7906905114901337 0.0029777363179866027 0.0
1.8119613600046138 0.002432662216269737 0.0
1.8335915865371935 0.0019238301537633493 0.0
1.8555863357515472 0.0014585736205617126 0.0
1.8779497501684 0.0010442995565836707 0.0
1.900685046062804 0.0006884707023232261 0.0
1.9237946033778688 0.00039858988909067774 0.0
1.9472800697778359 0.00018218655249310433 0.0
1.9711424789316858 4.680575444150103e-05 0.0

CELLS 100 300
2 0 2
2 2 3
2 3 4
2 4 5
2 5 6
2 6 7
2 7 8
2 8 9
2 9 10
2 10 11
2 11 12
2 12 13
2 13 14
2 14 15
2 15 16
2 16 17
2 17 18
2 18 19
2 19 20
2 20 21
2 21 22
2 22 23
2 23 24
2 24 25
2 25 26
2 26 27
2 27 28
2 28 29
2 29 30
2 30 31
2 31 32
2 32 33
2 33 34
2 34 35
2 35 36
2 36 37
2 37 38
2 38 39
2 39 40
2 40 41
2 41 42
2 42 43
2 43 44
2 44 45
2 45 46
2 46 47
2 47 48
2 48 49
2 49 50
2 50 51
2 51 52
2 52 53
2 53 54
2 54 55
2 55 56
2 56 57
2 57 58
2 58 59
2 59 60
2 60 61
2 61 62
2 62 63
2 63 64
2 64 65
2 65 66
2 66 67
2 67 68
2 68 69
2 69 70
2 70 71
2 71 72
2 72 73
2 73 74
2 74 75
2 75 76
2 76 77
2 77 78
2 78 79
2 79 80
2 80 81
2 81 82
2 82 83
2 83 84
2 84 85
2 85 86
2 86 87
2 87 88
2 88 89
2 89 90
2 90 91
2 91 92
2 92 93
2 93 94
2 94 95
2 95 96
2 96 97
2 97 98
2 98 99
2 99 100
2 100 1

CELL_TYPES 100
3
3
3
3
3
3
3
3
3
3
3
3
3
3
3
3
3
3
3
3
3
3
3
3
3
3
3
3
3
3
3
3
3
3
3
3
3
3
3
3
3
3
3
3
3
3
3
3
3
3
3
3
3
3
3
3
3
3
3
3
3
3
3
3
3
3
3
3
3
3
3
3
3
3
3
3
3
3
3
3
3
3
3
3
3
3
3
3
3
3
3
3
3
3
3
3
3
3
3
3

POINT_DATA 101
SCALARS MODE2_357.5556_Hz float 1
LOOKUP_TABLE default
0.047286102353484766
0.0
0.0004793082099848857
0.04732289249279532
0.09079607896717243
0.13044744030123204
0.16629345773838583
0.19835541971449408
0.22666049192970483
0.25124299903528763
0.27214563402997044
0.28942057331067067
0.303130505257008
0.3133495906637029
0.3201643827907815
0.32367474736673496
0.3239948413615617
0.321254237574437
0.31559932627401455
0.30719519585862326
0.2962283101390978
0.28291049278157593
0.26748505726513716
0.25023648520851965
0.23150603055078986
0.2117172738193954
0.19141821061477587
0.1713494045367726
0.15254655178134377
0.13646189881932477
0.12499592535092693
0.12016009992093138
0.12318804739416565
0.1337548715469426
0.1502801061321636
0.17088535641256222
0.19399791941435293
0.2184616241007869
0.24344940806200918
0.26835741118693857
0.2927276101193405
0.3161984927004184
0.3384749012078226
0.3593097364677153
0.3784928034263513
0.39584395559251817
0.4112088533097836
0.4244563315533143
0.4354767700591346
0.4441810923721761
0.4505001605194831
0.4543844180641611
0.4558036888522922
0.4547470749400612
0.45122292285996396
0.4452588475936952
0.43690182199175076
0.42621835907771893
0.41329483919324195
0.3982380680120258
0.3811762023684398
0.3622602606429601
0.3416665637464795
0.31960066760191974
0.29630371183872767
0.2720627320181373
0.24722754296174537
0.22223853611374536
0.19767221407101615
0.17431323481026575
0.15325603818223776
0.1360009566975483
0.12439244197580805
0.12010782754406896
0.12371289548688717
0.13419176067221472
0.14959461696982387
0.1679735908406134
0.18780591621959375
0.20799910478357247
0.22777381066635924
0.24655662707871953
0.2639071397230031
0.2794725226704446
0.2929599239605213
0.3041196187529446
0.3127345820074011
0.3186139023381833
0.3215885158604762
0.3215083526661086
0.3182403448518977
0.31166695431271246
0.30168500362644024
0.28820466966532154
0.27114854710049324
0.25045071923417916
0.2260557933533335
0.1979178712015664
0.1659994352650392
0.1302701428608854
0.09070555305491611

