# vtk DataFile Version 2.0
mesh vtk view
ASCII
DATASET UNSTRUCTURED_GRID
POINTS 21 double
0.0 0.0 0.0
2.0 0.0 0.0
0.0999999999997988 -0.00028517012517197674 0.0
0.19999999999962834 -0.0008892721266235918 0.0
0.2999999999994057 -0.0014638590107152393 0.0
0.3999999999991138 -0.0017412680369633775 0.0
0.49999999999882194 -0.0015830326257127113 0.0
0.59999999999853 -0.0010031148041274316 0.0
0.6999999999982381 -0.00015366323920321513 0.0
0.7999999999979462 0.0007256445968100514 0.0
0.8999999999976543 0.0013815489503136878 0.0
0.9999999999973842 0.0016236748163361856 0.0
1.099999999997626 0.0013815489503360093 0.0
1.19999999999789 0.0007256445968437106 0.0
1.299999999998154 -0.0001536632391703909 0.0
1.399999999998418 -0.001003114804104509 0.0
1.499999999998681 -0.0015830326257030899 0.0
1.599999999998945 -0.0017412680369647234 0.0
1.699999999999209 -0.00146385901072162 0.0
1.799999999999472 -0.0008892721266293695 0.0
1.899999999999736 -0.00028517012517433244 0.0

CELLS 20 60
2 0 2
2 2 3
2 3 4
2 4 5
2 5 6
2 6 7
2 7 8
2 8 9
2 9 10
2 10 11
2 11 12
2 12 13
2 13 14
2 14 15
2 15 16
2 16 17
2 17 18
2 18 19
2 19 20
2 20 1

CELL_TYPES 20
3
3
3
3
3
3
3
3
3
3
3
3
3
3
3
3
3
3
3
3

POINT_DATA 21
SCALARS MODE3_1214.1607_Hz float 1
LOOKUP_TABLE default
0.0
0.0
0.011120383062832986
0.03467770927684203
0.057084075477107095
0.0679018097510125
0.06173132332242486
0.03911707396126607
0.005992191789322145
0.028296953894228396
0.05387434444010532
0.0633161903486365
0.05387434444097577
0.02829695389554096
0.005992191788042144
0.039117073960372194
0.06173132332204966
0.06790180975106498
0.05708407547735592
0.034677709277067335
0.011120383062924849

