# vtk DataFile Version 2.0
mesh vtk view
ASCII
DATASET UNSTRUCTURED_GRID
POINTS 21 double
0.0 0.0 0.0
2.0 0.0 0.0
0.09999999999979879 -2.8815086337045702e-05 0.0
0.1999999999996283 -0.00010559863381795541 0.0
0.2999999999994057 -0.0002159656327313838 0.0
0.3999999999991138 -0.00034587895095752164 0.0
0.4999999999988219 -0.0004819872990542458 0.0
0.59999999999853 -0.0006120247038265544 0.0
0.6999999999982381 -0.0007252299290210462 0.0
0.7999999999979462 -0.0008127476876106148 0.0
0.8999999999976543 -0.0008679781882264255 0.0
0.9999999999973842 -0.0008868474941372172 0.0
1.099999999997626 -0.0008679781882282074 0.0
1.19999999999789 -0.0008127476876136458 0.0
1.299999999998154 -0.0007252299290247458 0.0
1.399999999998418 -0.0006120247038303587 0.0
1.499999999998681 -0.0004819872990576651 0.0
1.599999999998945 -0.0003458789509601943 0.0
1.699999999999209 -0.0002159656327331229 0.0
1.799999999999472 -0.0001055986338188492 0.0
1.899999999999736 -2.881508633731389e-05 0.0

CELLS 20 60
2 0 2
2 2 3
2 3 4
2 4 5
2 5 6
2 6 7
2 7 8
2 8 9
2 9 10
2 10 11
2 11 12
2 12 13
2 13 14
2 14 15
2 15 16
2 16 17
2 17 18
2 18 19
2 19 20
2 20 1

CELL_TYPES 20
3
3
3
3
3
3
3
3
3
3
3
3
3
3
3
3
3
3
3
3

POINT_DATA 21
SCALARS MODE1_224.6679_Hz float 1
LOOKUP_TABLE default
0.0
0.0
0.002323478197575271
0.008514849495846053
0.017414191760786003
0.027889633650578963
0.03886460612200095
0.049350053617235025
0.058478253668915584
0.06553516828666185
0.06998862931471445
0.07151013858157156
0.06998862931485812
0.06553516828690625
0.0584782536692139
0.04935005361754177
0.03886460612227666
0.02788963365079447
0.017414191760926234
0.008514849495918124
0.0023234781975968962

