# vtk DataFile Version 2.0
mesh vtk view
ASCII
DATASET UNSTRUCTURED_GRID
POINTS 21 double
0.0 0.0 0.0
2.0 0.0 0.0
0.09999999999979878 0.00044812448241310647 0.0
0.19999999999962828 0.001397427627551359 0.0
0.29999999999940563 0.002300349873981091 0.0
0.39999999999911373 0.0027362783437995942 0.0
0.49999999999882183 0.0024876226975485472 0.0
0.5999999999985299 0.0015763232636288214 0.0
0.699999999998238 0.00024147080446219532 0.0
0.7999999999979461 -0.0011402986521300811 0.0
0.8999999999976542 -0.0021710054933500814 0.0
0.9999999999973841 -0.002551488997099721 0.0
1.099999999997626 -0.0021710054933851584 0.0
1.19999999999789 -0.0011402986521829744 0.0
1.299999999998154 0.00024147080441061438 0.0
1.399999999998418 0.0015763232635928005 0.0
1.499999999998681 0.002487622697533428 0.0
1.599999999998945 0.0027362783438017093 0.0
1.699999999999209 0.0023003498739911183 0.0
1.799999999999472 0.0013974276275604384 0.0
1.899999999999736 0.0004481244824168083 0.0

CELLS 20 60
2 0 2
2 2 3
2 3 4
2 4 5
2 5 6
2 6 7
2 7 8
2 8 9
2 9 10
2 10 11
2 11 12
2 12 13
2 13 14
2 14 15
2 15 16
2 16 17
2 17 18
2 18 19
2 19 20
2 20 1

CELL_TYPES 20
3
3
3
3
3
3
3
3
3
3
3
3
3
3
3
3
3
3
3
3

POINT_DATA 21
SCALARS MODE3_1214.1607_Hz float 1
LOOKUP_TABLE default
0.0
0.0
0.011120383062832986
0.03467770927684203
0.057084075477107095
0.0679018097510125
0.06173132332242486
0.03911707396126607
0.005992191789322145
0.028296953894228396
0.05387434444010532
0.0633161903486365
0.05387434444097577
0.02829695389554096
0.005992191788042144
0.039117073960372194
0.06173132332204966
0.06790180975106498
0.05708407547735592
0.034677709277067335
0.011120383062924849

