# vtk DataFile Version 2.0
mesh vtk view
ASCII
DATASET UNSTRUCTURED_GRID
POINTS 21 double
0.0 0.0 0.0
2.0 0.0 0.0
0.09999999999979882 -0.001099941911377625 0.0
0.19999999999962836 -0.0034300496312624266 0.0
0.29999999999940574 -0.0056463133270444965 0.0
0.3999999999991139 -0.006716319571144458 0.0
0.499999999998822 -0.006105982984891889 0.0
0.5999999999985302 -0.0038691571016343795 0.0
0.6999999999982383 -0.0005927010654981158 0.0
0.7999999999979464 0.002798914873410199 0.0
0.8999999999976546 0.005328831665495654 0.0
0.9999999999973844 0.00626274572015386 0.0
1.0999999999976262 0.005328831665581752 0.0
1.1999999999978903 0.0027989148735400276 0.0
1.2999999999981542 -0.000592701065371508 0.0
1.3999999999984183 -0.0038691571015459646 0.0
1.4999999999986813 -0.006105982984854777 0.0
1.5999999999989452 -0.006716319571149649 0.0
1.699999999999209 -0.005646313327069108 0.0
1.799999999999472 -0.003430049631284712 0.0
1.899999999999736 -0.0010999419113867112 0.0

CELLS 20 60
2 0 2
2 2 3
2 3 4
2 4 5
2 5 6
2 6 7
2 7 8
2 8 9
2 9 10
2 10 11
2 11 12
2 12 13
2 13 14
2 14 15
2 15 16
2 16 17
2 17 18
2 18 19
2 19 20
2 20 1

CELL_TYPES 20
3
3
3
3
3
3
3
3
3
3
3
3
3
3
3
3
3
3
3
3

POINT_DATA 21
SCALARS MODE3_1214.1607_Hz float 1
LOOKUP_TABLE default
0.0
0.0
0.011120383062832986
0.03467770927684203
0.057084075477107095
0.0679018097510125
0.06173132332242486
0.03911707396126607
0.005992191789322145
0.028296953894228396
0.05387434444010532
0.0633161903486365
0.05387434444097577
0.02829695389554096
0.005992191788042144
0.039117073960372194
0.06173132332204966
0.06790180975106498
0.05708407547735592
0.034677709277067335
0.011120383062924849

