# vtk DataFile Version 2.0
mesh vtk view
ASCII
DATASET UNSTRUCTURED_GRID
POINTS 21 double
0.0 0.0 0.0
2.0 0.0 0.0
0.09999999999979882 -0.0011814190899981896 0.0
0.19999999999962836 -0.00368412738172631 0.0
0.29999999999940574 -0.0060645587586774215 0.0
0.3999999999991139 -0.007213824724562566 0.0
0.499999999998822 -0.006558278020809806 0.0
0.5999999999985302 -0.004155761331385075 0.0
0.6999999999982384 -0.0006366048481276057 0.0
0.7999999999979465 0.003006241901070214 0.0
0.8999999999976546 0.005723559937013851 0.0
0.9999999999973844 0.006726652810535628 0.0
1.0999999999976262 0.005723559937106326 0.0
1.1999999999978903 0.003006241901209659 0.0
1.2999999999981542 -0.0006366048479916197 0.0
1.3999999999984183 -0.00415576133129011 0.0
1.4999999999986813 -0.0065582780207699455 0.0
1.5999999999989452 -0.007213824724568141 0.0
1.699999999999209 -0.006064558758703856 0.0
1.799999999999472 -0.003684127381750246 0.0
1.899999999999736 -0.0011814190900079492 0.0

CELLS 20 60
2 0 2
2 2 3
2 3 4
2 4 5
2 5 6
2 6 7
2 7 8
2 8 9
2 9 10
2 10 11
2 11 12
2 12 13
2 13 14
2 14 15
2 15 16
2 16 17
2 17 18
2 18 19
2 19 20
2 20 1

CELL_TYPES 20
3
3
3
3
3
3
3
3
3
3
3
3
3
3
3
3
3
3
3
3

POINT_DATA 21
SCALARS MODE3_1214.1607_Hz float 1
LOOKUP_TABLE default
0.0
0.0
0.011120383062832986
0.03467770927684203
0.057084075477107095
0.0679018097510125
0.06173132332242486
0.03911707396126607
0.005992191789322145
0.028296953894228396
0.05387434444010532
0.0633161903486365
0.05387434444097577
0.02829695389554096
0.005992191788042144
0.039117073960372194
0.06173132332204966
0.06790180975106498
0.05708407547735592
0.034677709277067335
0.011120383062924849

