# vtk DataFile Version 2.0
mesh vtk view
ASCII
DATASET UNSTRUCTURED_GRID
POINTS 21 double
0.0 0.0 0.0
2.0 0.0 0.0
0.09999999999979879 -1.604847573978829e-05 0.0
0.1999999999996283 -5.458315509113944e-05 0.0
0.2999999999994057 -0.00010162602421468776 0.0
0.3999999999991138 -0.0001445302927584023 0.0
0.4999999999988219 -0.00017304855768986667 0.0
0.59999999999853 -0.0001803120936276994 0.0
0.6999999999982381 -0.00016348155538160235 0.0
0.7999999999979462 -0.00012390839215361467 0.0
0.8999999999976543 -6.674011795090836e-05 0.0
0.9999999999973842 -1.7966122587504733e-15 0.0
1.099999999997626 6.674011794789813e-05 0.0
1.19999999999789 0.00012390839215154092 0.0
1.299999999998154 0.0001634815553805561 0.0
1.399999999998418 0.00018031209362755302 0.0
1.499999999998681 0.0001730485576903331 0.0
1.599999999998945 0.00014453029275912475 0.0
1.699999999999209 0.00010162602421533885 0.0
1.799999999999472 5.458315509154555e-05 0.0
1.899999999999736 1.60484757399267e-05 0.0

CELLS 20 60
2 0 2
2 2 3
2 3 4
2 4 5
2 5 6
2 6 7
2 7 8
2 8 9
2 9 10
2 10 11
2 11 12
2 12 13
2 13 14
2 14 15
2 15 16
2 16 17
2 17 18
2 18 19
2 19 20
2 20 1

CELL_TYPES 20
3
3
3
3
3
3
3
3
3
3
3
3
3
3
3
3
3
3
3
3

POINT_DATA 21
SCALARS MODE2_619.3146_Hz float 1
LOOKUP_TABLE default
0.0
0.0
0.0060336489185526185
0.02052130059120418
0.03820772520966169
0.05433818505503323
0.06506002563059166
0.06779085355884888
0.061463177302626334
0.046585093091657905
0.02509188081334163
6.754615076797294e-13
0.025091880812209894
0.04658509309087825
0.06146317730223299
0.06779085355879386
0.06506002563076702
0.05433818505530484
0.03820772520990647
0.020521300591356862
0.006033648918604656

