# vtk DataFile Version 2.0
mesh vtk view
ASCII
DATASET UNSTRUCTURED_GRID
POINTS 21 double
0.0 0.0 0.0
2.0 0.0 0.0
0.09999999999979879 -0.0002407271360968242 0.0
0.1999999999996283 -0.0008187473263670911 0.0
0.2999999999994057 -0.0015243903632203156 0.0
0.3999999999991138 -0.0021679543913760333 0.0
0.4999999999988219 -0.0025957283653479987 0.0
0.59999999999853 -0.0027046814044154894 0.0
0.6999999999982381 -0.0024522233307240336 0.0
0.7999999999979462 -0.001858625882304219 0.0
0.8999999999976543 -0.0010011017692636247 0.0
0.9999999999973842 -2.6949183881257088e-14 0.0
1.099999999997626 0.0010011017692184714 0.0
1.19999999999789 0.0018586258822731127 0.0
1.299999999998154 0.0024522233307083404 0.0
1.399999999998418 0.0027046814044132937 0.0
1.499999999998681 0.0025957283653549952 0.0
1.599999999998945 0.0021679543913868697 0.0
1.699999999999209 0.001524390363230082 0.0
1.799999999999472 0.0008187473263731828 0.0
1.899999999999736 0.00024072713609890037 0.0

CELLS 20 60
2 0 2
2 2 3
2 3 4
2 4 5
2 5 6
2 6 7
2 7 8
2 8 9
2 9 10
2 10 11
2 11 12
2 12 13
2 13 14
2 14 15
2 15 16
2 16 17
2 17 18
2 18 19
2 19 20
2 20 1

CELL_TYPES 20
3
3
3
3
3
3
3
3
3
3
3
3
3
3
3
3
3
3
3
3

POINT_DATA 21
SCALARS MODE2_619.3146_Hz float 1
LOOKUP_TABLE default
0.0
0.0
0.0060336489185526185
0.02052130059120418
0.03820772520966169
0.05433818505503323
0.06506002563059166
0.06779085355884888
0.061463177302626334
0.046585093091657905
0.02509188081334163
6.754615076797294e-13
0.025091880812209894
0.04658509309087825
0.06146317730223299
0.06779085355879386
0.06506002563076702
0.05433818505530484
0.03820772520990647
0.020521300591356862
0.006033648918604656

