# vtk DataFile Version 2.0
mesh vtk view
ASCII
DATASET UNSTRUCTURED_GRID
POINTS 150 double
0.0 0.0 0.0
968.5404377285618 -151.66492530092842 0.0
0.0 968.6378932754786 0.0
19.370808754561462 -0.10967975741734085 0.0
38.74161750912111 -0.43471790417574613 0.0
58.11242626367285 -0.9691127520345884 0.0
77.4832350182442 -1.7068626127544384 0.0
96.85404377282258 -2.6419657980948386 0.0
116.22485252739995 -3.7684206198150827 0.0
135.59566128194345 -5.080225389672355 0.0
154.96647003646675 -6.5713784194263924 0.0
174.33727879099004 -8.23587802083794 0.0
193.70808754551342 -10.067722505666424 0.0
213.0788963000367 -12.060910185671228 0.0
232.44970505455996 -14.209439372611792 0.0
251.8205138091 -16.507308378249594 0.0
271.1913225636785 -18.948515514347214 0.0
290.5621313182569 -21.527059092659616 0.0
309.9329400728353 -24.23693742494633 0.0
329.3037488274137 -27.07214882296682 0.0
348.67455758199196 -30.026691598480607 0.0
368.04536633657034 -33.094564063247354 0.0
387.41617509114883 -36.26976452902668 0.0
406.7869838457272 -39.54629130757813 0.0
426.1577926003056 -42.91814271066141 0.0
445.5286013548839 -46.37931705003614 0.0
464.8994101094623 -49.923812637462 0.0
484.27021886405146 -53.54562778470071 0.0
503.6410276186835 -57.238760803518346 0.0
523.0118363732618 -60.99721000565617 0.0
542.3826451278401 -64.81497370288398 0.0
561.7534538824183 -68.68605020696138 0.0
581.1242626369965 -72.60443782964812 0.0
600.4950713915748 -76.564134882704 0.0
619.865880146153 -80.55913967788851 0.0
639.2366889007312 -84.58345052696113 0.0
658.6074976553095 -88.63106574168151 0.0
677.9783064098879 -92.69598363380902 0.0
697.349115164466 -96.77220251510315 0.0
716.7199239190443 -100.8537206973234 0.0
736.0907326736226 -104.93453649222904 0.0
755.4615414282009 -109.0086482115794 0.0
774.8323501827791 -113.07005416713372 0.0
794.2031589373573 -117.11275267065129 0.0
813.5739676919356 -121.13074203389179 0.0
832.944776446514 -125.11802056861426 0.0
852.3155852010921 -129.06858658657765 0.0
871.6863939556704 -132.9764383995412 0.0
891.0572027102486 -136.83557431926397 0.0
910.4280114648269 -140.63999265750516 0.0
929.7988202194051 -144.3836917260236 0.0
949.1696289739834 -148.06066983657828 0.0
951.1625262555924 -127.2659716478106 0.0
933.6750458950014 -102.97658688231584 0.0
916.0797607806315 -78.79500687060916 0.0
898.3784350463098 -54.71946747883348 0.0
880.5728328258822 -30.748204573157565 0.0
862.6647182531916 -6.879454019746717 0.0
844.6558554620925 16.88854831521867 0.0
826.5480085864181 40.55756656558739 0.0
808.342941759998 64.12936486521104 0.0
790.042419116672 87.60570734792934 0.0
771.6482047902796 110.98835814758179 0.0
753.1620629146606 134.27908139800815 0.0
734.5857576236468 157.47964123305763 0.0
715.9210530510675 180.59180178658266 0.0
697.1697133307807 203.6173271924001 0.0
678.3335025966255 226.5579815843501 0.0
659.4141849824423 249.4155290962724 0.0
640.4135246220707 272.1917338620066 0.0
621.3332856493507 294.88836001539244 0.0
602.1752321981222 317.5071716902697 0.0
582.941128402225 340.04993302047797 0.0
563.6327383954986 362.51840813985723 0.0
544.2518263117826 384.91436118224715 0.0
524.8001562849172 407.2395562814877 0.0
505.27949244873133 429.4957575714312 0.0
485.6915989370324 451.6847291859543 0.0
466.0382398837585 473.808235258786 0.0
446.3211794226947 495.86803992382835 0.0
426.5421816876812 517.8659073149212 0.0
406.7030108125576 539.8036015659044 0.0
386.8054309311641 561.6828868106177 0.0
366.8512061773402 583.5055271829008 0.0
346.84210068492575 605.273286816593 0.0
326.77987858776004 626.9879298455342 0.0
306.6663040196828 648.6512204035636 0.0
286.5031411145333 670.2649226245209 0.0
266.29215400615135 691.8308006422457 0.0
246.03510682837637 713.3506185905776 0.0
225.73376371504833 734.8261406033557 0.0
205.38988880000628 756.2591308144201 0.0
185.00524621708982 777.6513533576099 0.0
164.58160010013827 799.0045723667647 0.0
144.12071458299144 820.3205519757238 0.0
123.62435379948828 841.601056318327 0.0
103.09428188346862 862.8478495284136 0.0
82.53226296877179 884.0626957398232 0.0
61.94006118923703 905.2473590863951 0.0
41.319440678703856 926.4036037019689 0.0
20.672165571011828 947.5331937203835 0.0
-0.19631517671721394 949.2651354099704 0.0
-0.3767681525669523 929.8923775444621 0.0
-0.5418495110811816 910.5196196789537 0.0
-0.6920498357918725 891.1468618134454 0.0
-0.8278597102309929 871.7741039479372 0.0
-0.9497697179305126 852.4013460824287 0.0
-1.058270442422398 833.0285882169205 0.0
-1.1538524672386203 813.6558303514123 0.0
-1.237006375911152 794.2830724859039 0.0
-1.3082227519719645 774.9103146203956 0.0
-1.3679921789530325 755.5375567548874 0.0
-1.4168052403863332 736.1647988893791 0.0
-1.4551525198038426 716.7920410238709 0.0
-1.4835246007375393 697.4192831583625 0.0
-1.5024120667194023 678.0465252928543 0.0
-1.5123055012814153 658.673767427346 0.0
-1.5136954879555633 639.3010095618376 0.0
-1.5070726102738345 619.9282516963294 0.0
-1.4929274517682192 600.5554938308211 0.0
-1.4717505959707076 581.1827359653129 0.0
-1.4440326264132928 561.8099780998047 0.0
-1.4102641266279679 542.4372202342964 0.0
-1.3709356801467274 523.0644623687881 0.0
-1.3265378705015674 503.69170450327977 0.0
-1.2775612812244552 484.3189466377607 0.0
-1.224496495847287 464.9461887721988 0.0
-1.1678340979023218 445.5734309066904 0.0
-1.1080646709214148 426.2006730411821 0.0
-1.045678798436564 406.8279151756738 0.0
-0.981167063979766 387.45515731016553 0.0
-0.9150200510830169 368.08239944465726 0.0
-0.8477283432783101 348.70964157914904 0.0
-0.7797825240976373 329.33688371364076 0.0
-0.7116731770729884 309.9641258481324 0.0
-0.6438908857363517 290.5913679826242 0.0
-0.5769262336197156 271.218610117116 0.0
-0.5112698042550677 251.84585225160768 0.0
-0.4474121811743958 232.47309438609926 0.0
-0.38584394790968796 213.10033652059104 0.0
-0.32705568799293105 193.72757865508274 0.0
-0.27153798495611375 174.3548207895746 0.0
-0.21978142233122253 154.9820629240663 0.0
-0.17227658365024517 135.60930505855788 0.0
-0.12951405244517036 116.23654719304969 0.0
-0.0919844122479855 96.86378932754137 0.0
-0.06017824659067926 77.49103146203322 0.0
-0.03458613900523923 58.11827359652486 0.0
-0.015698673023654016 38.74551573101662 0.0
-0.004006432177911509 19.372757865508255 0.0

CELLS 150 450
2 0 3
2 3 4
2 4 5
2 5 6
2 6 7
2 7 8
2 8 9
2 9 10
2 10 11
2 11 12
2 12 13
2 13 14
2 14 15
2 15 16
2 16 17
2 17 18
2 18 19
2 19 20
2 20 21
2 21 22
2 22 23
2 23 24
2 24 25
2 25 26
2 26 27
2 27 28
2 28 29
2 29 30
2 30 31
2 31 32
2 32 33
2 33 34
2 34 35
2 35 36
2 36 37
2 37 38
2 38 39
2 39 40
2 40 41
2 41 42
2 42 43
2 43 44
2 44 45
2 45 46
2 46 47
2 47 48
2 48 49
2 49 50
2 50 51
2 51 1
2 1 52
2 52 53
2 53 54
2 54 55
2 55 56
2 56 57
2 57 58
2 58 59
2 59 60
2 60 61
2 61 62
2 62 63
2 63 64
2 64 65
2 65 66
2 66 67
2 67 68
2 68 69
2 69 70
2 70 71
2 71 72
2 72 73
2 73 74
2 74 75
2 75 76
2 76 77
2 77 78
2 78 79
2 79 80
2 80 81
2 81 82
2 82 83
2 83 84
2 84 85
2 85 86
2 86 87
2 87 88
2 88 89
2 89 90
2 90 91
2 91 92
2 92 93
2 93 94
2 94 95
2 95 96
2 96 97
2 97 98
2 98 99
2 99 100
2 100 2
2 2 101
2 101 102
2 102 103
2 103 104
2 104 105
2 105 106
2 106 107
2 107 108
2 108 109
2 109 110
2 110 111
2 111 112
2 112 113
2 113 114
2 114 115
2 115 116
2 116 117
2 117 118
2 118 119
2 119 120
2 120 121
2 121 122
2 122 123
2 123 124
2 124 125
2 125 126
2 126 127
2 127 128
2 128 129
2 129 130
2 130 131
2 131 132
2 132 133
2 133 134
2 134 135
2 135 136
2 136 137
2 137 138
2 138 139
2 139 140
2 140 141
2 141 142
2 142 143
2 143 144
2 144 145
2 145 146
2 146 147
2 147 148
2 148 149
2 149 0

CELL_TYPES 150
3
3
3
3
3
3
3
3
3
3
3
3
3
3
3
3
3
3
3
3
3
3
3
3
3
3
3
3
3
3
3
3
3
3
3
3
3
3
3
3
3
3
3
3
3
3
3
3
3
3
3
3
3
3
3
3
3
3
3
3
3
3
3
3
3
3
3
3
3
3
3
3
3
3
3
3
3
3
3
3
3
3
3
3
3
3
3
3
3
3
3
3
3
3
3
3
3
3
3
3
3
3
3
3
3
3
3
3
3
3
3
3
3
3
3
3
3
3
3
3
3
3
3
3
3
3
3
3
3
3
3
3
3
3
3
3
3
3
3
3
3
3
3
3
3
3
3
3
3
3

POINT_DATA 150
SCALARS DISPL_X float 1
LOOKUP_TABLE default
0.0
-0.0006291912454287654
0.0
-1.2583824908569192e-05
-2.516764981713721e-05
-3.775147472570008e-05
-5.033529963427567e-05
-6.291912454285583e-05
-7.550294945143532e-05
-8.808677435999282e-05
-0.00010067059926853715
-0.00011325442417708152
-0.00012583824908562593
-0.00013842207399417024
-0.0001510058989027146
-0.0001635897238112698
-0.00017617354871985
-0.00018875737362843012
-0.00020134119853701025
-0.00021392502344559034
-0.00022650884835417033
-0.0002390926732627504
-0.0002516764981713304
-0.0002642603230799103
-0.0002768441479884902
-0.00028942797289707007
-0.00030201179780565
-0.000314595622714237
-0.0003271794476228517
-0.0003397632725314316
-0.00035234709744001144
-0.0003649309223485913
-0.0003775147472571711
-0.0003900985721657509
-0.00040268239707433074
-0.0004152662219829105
-0.0004278500468914903
-0.00044043387180007
-0.00045301769670864965
-0.00046560152161722945
-0.00047818534652580914
-0.0004907691714343889
-0.0005033529963429686
-0.0005159368212515481
-0.0005285206461601278
-0.0005411044710687074
-0.000553688295977287
-0.0005662721208858667
-0.0005788559457944463
-0.0005914397707030261
-0.0006040235956116059
-0.0006166074205201856
-0.000576749474888268
-0.0005264990821002226
-0.00047840478438783445
-0.00043243129907428226
-0.0003885433434827758
-0.0003467056349365399
-0.0003068828907588226
-0.00026903982827282153
-0.00023314116480173215
-0.0001991516176687598
-0.00016703590419711782
-0.00013675874171000814
-0.00010828484753062047
-8.157893898214735e-05
-5.660573338782662e-05
-3.3329948070870446e-05
-1.171630035447851e-05
8.270492438148986e-06
2.6665712983808203e-05
4.35046439592949e-05
5.8822568041406766e-05
7.265476790693873e-05
8.503652623267704e-05
9.600312569542612e-05
0.00010558984897199014
0.00011383197873918355
0.00012076479767376299
0.00012642358845255217
0.0001308436337523436
0.0001340602162499344
0.00013610861862212197
0.00013702412354570562
0.0001368420136974743
0.0001355975717542226
0.0001333260803927393
0.00013006282228981267
0.00012584308012223333
0.0001207021365667953
0.00011467527430029207
0.00010779777599951322
0.00010010492434124591
9.163200200227776e-05
8.241429165939905e-05
7.248707598939938e-05
6.188563766906646e-05
5.06452593751902e-05
3.880122378455639e-05
2.6388813573954332e-05
1.3443311420172932e-05
-3.9263035343442786e-06
-7.535363051339046e-06
-1.0836990221623632e-05
-1.384099671583745e-05
-1.6557194204619858e-05
-1.899539435861025e-05
-2.116540884844796e-05
-2.3077049344772405e-05
-2.474012751822304e-05
-2.6164455039439287e-05
-2.735984357906065e-05
-2.8336104807726663e-05
-2.9103050396076854e-05
-2.9670492014750785e-05
-3.0048241334388045e-05
-3.0246110025628306e-05
-3.0273909759111266e-05
-3.014145220547669e-05
-2.9858549035364384e-05
-2.943501191941415e-05
-2.8880652528265855e-05
-2.8205282532559358e-05
-2.741871360293455e-05
-2.653075741003135e-05
-2.5551225624489103e-05
-2.448992991694574e-05
-2.3356681958046438e-05
-2.2161293418428298e-05
-2.091357596873128e-05
-1.962334127959532e-05
-1.8300401021660338e-05
-1.6954566865566203e-05
-1.5595650481952745e-05
-1.4233463541459768e-05
-1.2877817714727033e-05
-1.1538524672394312e-05
-1.0225396085101356e-05
-8.948243623487916e-06
-7.716878958193759e-06
-6.541113759858621e-06
-5.430759699122275e-06
-4.3956284466244504e-06
-3.4455316730049034e-06
-2.590281048903407e-06
-1.83968824495971e-06
-1.2035649318135853e-06
-6.917227801047846e-07
-3.1397346047308034e-07
-8.012864355823019e-08

SCALARS DISPL_Y float 1
LOOKUP_TABLE default
0.0
-0.0030332985060185684
-0.0006272421344904268
-2.193595148346817e-06
-8.694358083514922e-06
-1.9382255040691767e-05
-3.413725225508877e-05
-5.283931596189677e-05
-7.536841239630165e-05
-0.0001016045077934471
-0.00013142756838852785
-0.0001647175604167588
-0.0002013544501133285
-0.00024121820371342457
-0.00028418878745223585
-0.0003301461675649919
-0.00037897031028694426
-0.00043054118185319233
-0.0004847387484989266
-0.0005414429764593364
-0.0006005338319696121
-0.000661891281264947
-0.0007253952905805336
-0.0007909258261515626
-0.0008583628542132281
-0.0009275863410007229
-0.00099847625274924
-0.0010709125556940143
-0.001144775216070367
-0.0012199442001131235
-0.0012962994740576795
-0.0013737210041392276
-0.0014520887565929624
-0.0015312826976540798
-0.0016111827935577701
-0.0016916690105392227
-0.0017726213148336301
-0.0018539196726761805
-0.001935444050302063
-0.002017074413946468
-0.002098690729844581
-0.002180172964231588
-0.0022614010833426745
-0.002342255053413026
-0.002422614840677836
-0.002502360411372285
-0.002581371731731553
-0.0026595287679908237
-0.0027367114863852795
-0.002812799853150103
-0.002887673834520472
-0.002961213396731566
-0.002945319432956096
-0.002859531737646066
-0.0027759001374117165
-0.0026943893495761893
-0.0026149640914627298
-0.0025375890803945624
-0.0024622290336949525
-0.0023888486686870704
-0.002317412702694087
-0.0022478858530392133
-0.0021802328370456544
-0.0021144183720366192
-0.0020504071753352916
-0.0019881639642648488
-0.0019276534561485578
-0.001868840368309616
-0.001811689418071228
-0.0017561653227566017
-0.0017022327996889424
-0.001649856566191456
-0.0015990013395873481
-0.001549631837199823
-0.0015017127763520802
-0.0014552088743673274
-0.0014100848485687394
-0.0013663054162794497
-0.0013238352948228749
-0.001282639201522092
-0.0012426818537002973
-0.0012039279686806945
-0.0011663422637864867
-0.0011298894563408868
-0.0010945342636671006
-0.0010602414030883391
-0.001026975591927812
-0.0009947015475087276
-0.0009633839871542926
-0.000932987628187717
-0.0009034771879322114
-0.0008748173837109861
-0.0008469729328472517
-0.0008199085526642175
-0.0007935889604850948
-0.0007679788736330933
-0.0007430430094314214
-0.0007187460852032911
-0.0006950528182719126
-0.0006719279259604999
-0.0006493361255922669
-0.0006146972918006192
-0.0006021524491108116
-0.0005896076064210039
-0.0005770627637311963
-0.0005645179210413886
-0.000551973078351581
-0.0005394282356617734
-0.0005268833929719659
-0.0005143385502821582
-0.0005017937075923507
-0.0004892488649025431
-0.00047670402221273555
-0.00046415917952292795
-0.00045161433683312024
-0.0004390694941433126
-0.0004265246514535049
-0.0004139798087636972
-0.00040143496607388955
-0.0003888901233840819
-0.00037634528069427424
-0.0003638004380044666
-0.0003512555953146589
-0.00033871075262485126
-0.0003261659099350435
-0.0003136210672452287
-0.00030107622455538617
-0.00028853138186557824
-0.00027598653917577037
-0.0002634416964859625
-0.0002508968537961547
-0.000238352011106347
-0.0002258071684165393
-0.00021326232572673156
-0.00020071748303692382
-0.00018817264034711614
-0.00017562779765730845
-0.0001630829549675007
-0.00015053811227769281
-0.00013799326958788505
-0.00012544842689807728
-0.00011290358420826961
-0.00010035874151846184
-8.781389882865402e-05
-7.526905613884634e-05
-6.27242134490386e-05
-5.017937075923097e-05
-3.76345280694232e-05
-2.5089685379615495e-05
-1.2544842689807712e-05

SCALARS DISPL_Z float 1
LOOKUP_TABLE default
0.0
0.0
0.0
0.0
0.0
0.0
0.0
0.0
0.0
0.0
0.0
0.0
0.0
0.0
0.0
0.0
0.0
0.0
0.0
0.0
0.0
0.0
0.0
0.0
0.0
0.0
0.0
0.0
0.0
0.0
0.0
0.0
0.0
0.0
0.0
0.0
0.0
0.0
0.0
0.0
0.0
0.0
0.0
0.0
0.0
0.0
0.0
0.0
0.0
0.0
0.0
0.0
0.0
0.0
0.0
0.0
0.0
0.0
0.0
0.0
0.0
0.0
0.0
0.0
0.0
0.0
0.0
0.0
0.0
0.0
0.0
0.0
0.0
0.0
0.0
0.0
0.0
0.0
0.0
0.0
0.0
0.0
0.0
0.0
0.0
0.0
0.0
0.0
0.0
0.0
0.0
0.0
0.0
0.0
0.0
0.0
0.0
0.0
0.0
0.0
0.0
0.0
0.0
0.0
0.0
0.0
0.0
0.0
0.0
0.0
0.0
0.0
0.0
0.0
0.0
0.0
0.0
0.0
0.0
0.0
0.0
0.0
0.0
0.0
0.0
0.0
0.0
0.0
0.0
0.0
0.0
0.0
0.0
0.0
0.0
0.0
0.0
0.0
0.0
0.0
0.0
0.0
0.0
0.0
0.0
0.0
0.0
0.0
0.0
0.0

SCALARS DISPL_MAG float 1
LOOKUP_TABLE default
0.0
0.003097867242142355
0.0006272421344904268
1.2773586379884747e-05
2.6627100101258267e-05
4.243637183393031e-05
6.081935860233874e-05
8.216331020936632e-05
0.00010668220546560234
0.0001344721377129736
0.00016555293802771233
0.00019989607126036994
0.00023744237093108916
0.00027811309277266815
0.0003218167932488747
0.0003684536466022548
0.0004179181921710614
0.00047010111185855156
0.0005248904004881642
0.0005821721501526347
0.0006418310850393887
0.0007037509322356039
0.000767814682933454
0.0008339047792331151
0.0009019032496717996
0.0009716918089118671
0.0010431519320396071
0.001116164910653459
0.0011906118957392242
0.0012663739308556997
0.001343331978148595
0.0014213669390060687
0.0015003596706857796
0.001580190999892264
0.001660741734036376
0.0017418926707288003
0.0018235246059287377
0.0019055183410727268
0.001987754689437523
0.0020701144819380802
0.0021524785725222885
0.0022347278432947367
0.002316743209479822
0.0023984056243183736
0.0024795960839802144
0.0025601956325667415
0.002640085367272238
0.0027191464437693246
0.0027972600818827534
0.0028743075716162474
0.002950170279599084
0.0030247296560226757
0.0030012574896087657
0.002907597469055424
0.0028168231592713725
0.002728869875155038
0.0026436722810144744
0.0025611644106215575
0.0024812796946355868
0.0024039509959824595
0.0023291106537330986
0.0022566905359649816
0.0021866221020155935
0.0021188364744453717
0.00205326452092057
0.0019898369461055776
0.0019284843935209468
0.0018691375571803237
0.0018117273026714757
0.0017561847971947508
0.0017024416479238839
0.0016504300479120851
0.0016000829286362379
0.0015513341181585963
0.0015041185037931
0.0014583721980964653
0.0014140327069658088
0.001371039098617628
0.0013293321722488902
0.0012888546252384128
0.0012495512178416397
0.001211368934450856
0.0011742571406458675
0.0011381677354343576
0.0011030552982756858
0.0010688772306903967
0.0010355938924734786
0.0010031687327455182
0.0009715684162836671
0.0009407629457643042
0.0009107257807099477
0.0008814339540506571
0.0008528681872676701
0.0008250130050628762
0.0007978568503644835
0.0007713922002018478
0.0007456156825165431
0.0007205281932667429
0.0006961350121599312
0.0006724459139346599
0.0006494752702152068
0.0006147098310637787
0.0006021995962025082
0.000589707189973608
0.0005772287297728469
0.0005647606783911402
0.0005522998318230412
0.0005398433068594032
0.0005273885285025756
0.000514933217238867
0.0005024753761994596
0.0004900132782375367
0.00047754545294607795
0.00046507067363762495
0.00045258794430432675
0.00044009648657374447
0.00042759572667324015
0.00041508528241330134
0.000402564950197853
0.0003900346920674925
0.0003774946227796472
0.00036494499692789345
0.0003523861961010915
0.0003398187160815792
0.0003272431540804251
0.00031466019600666015
0.00030207060376650726
0.0002894752025879755
0.00027687486836510945
0.000264270515016719
0.00025166308185306903
0.00023905352094456535
0.00022644278448626776
0.00021383181215228427
0.00020122151843444546
0.0001886127799601577
0.00017600642278499932
0.0001634032096564479
0.00015080382724611647
0.00013820887334903696
0.00012561884404985445
0.00011303412085730325
0.00010045495781000663
8.78814685585008e-05
7.531361343040917e-05
6.275118648789995e-05
5.019380258893976e-05
3.764088446639795e-05
2.509164984176953e-05
1.25450985931375e-05

