# vtk DataFile Version 2.0
mesh vtk view
ASCII
DATASET UNSTRUCTURED_GRID
POINTS 41 double
0.0 0.0 0.0
0.0005361772735814181 19.996222509861504 0.0
20.0 20.0 0.0
-0.0010173963766181657 0.9998111254921774 0.0
-0.00385511459704149 1.9996222509845285 0.0
-0.00819144829711669 2.999433376475795 0.0
-0.013704691112692406 3.99924450196595 0.0
-0.020073136679626905 4.999055627456105 0.0
-0.02697507863377441 5.99886675294626 0.0
-0.034088810610989166 6.998677878436414 0.0
-0.04109262624712592 7.998489003926639 0.0
-0.04766481917806401 8.998300129420958 0.0
-0.053483683039626126 9.998111254915553 0.0
-0.0582275114676604 10.99792238041015 0.0
-0.061574598098016686 11.997733505904746 0.0
-0.06320323656654471 12.99754463139934 0.0
-0.06279172050909405 13.997355756893935 0.0
-0.06001834356151435 14.99716688238853 0.0
-0.05456139935965524 15.996978007883124 0.0
-0.046099181539366395 16.996789133377717 0.0
-0.03430998373649753 17.996600258872313 0.0
-0.018872099586898363 18.99641138436691 0.0
1.0005093684090045 19.97294268953831 0.0
2.000482559544601 19.947485908417875 0.0
3.000455750679113 19.921729459941066 0.0
4.000428941812514 19.897291170453883 0.0
5.000402132945914 19.875529399207455 0.0
6.000375324079314 19.85754303835811 0.0
7.000348515212713 19.844171512967343 0.0
8.000321706346183 19.835994781001805 0.0
9.000294897483748 19.833333333333332 0.0
10.000268088621588 19.83624819373896 0.0
11.000241279759432 19.844540918900844 0.0
12.000214470897273 19.857753598406298 0.0
13.000187662035113 19.875168854747805 0.0
14.000160853172956 19.895809843323004 0.0
15.000134044310796 19.918440252434696 0.0
16.000107235448635 19.941564303290846 0.0
17.000080426586475 19.963426750004583 0.0
18.000053617724316 19.982012879594194 0.0
19.00002680886216 19.99504851198313 0.0

CELLS 40 120
2 0 3
2 3 4
2 4 5
2 5 6
2 6 7
2 7 8
2 8 9
2 9 10
2 10 11
2 11 12
2 12 13
2 13 14
2 14 15
2 15 16
2 16 17
2 17 18
2 18 19
2 19 20
2 20 21
2 21 1
2 1 22
2 22 23
2 23 24
2 24 25
2 25 26
2 26 27
2 27 28
2 28 29
2 29 30
2 30 31
2 31 32
2 32 33
2 33 34
2 34 35
2 35 36
2 36 37
2 37 38
2 38 39
2 39 40
2 40 2

CELL_TYPES 40
3
3
3
3
3
3
3
3
3
3
3
3
3
3
3
3
3
3
3
3
3
3
3
3
3
3
3
3
3
3
3
3
3
3
3
3
3
3
3
3

POINT_DATA 41
SCALARS CellEntityIds float 1
LOOKUP_TABLE default
0.0
0.00017645487929356232
0.0
4.785715142055433e-05
0.00017914768875891231
0.0003797486067115248
0.0006347856701113123
0.0009293820859200112
0.001248661107407179
0.0015777464185265553
0.0019017623913919637
0.002205834423223718
0.0024750894589054976
0.0026946568567311974
0.0028496699025292553
0.0029252686238739754
0.0029066054262659497
0.002778857515316227
0.002527258025238122
0.0021371896925595265
0.0015945610713704167
0.0008884486393772768
0.0012515855062565824
0.0024288078019131794
0.003619967316199037
0.004750185003592792
0.005756625924258961
0.006588463457584184
0.0072068734663824335
0.007585032759148874
0.007708118565019143
0.0075733083218126095
0.00718977957967682
0.0065787099531831525
0.005773277095787221
0.004818658685420919
0.003772032415975909
0.002702575992067807
0.00169146712570729
0.0008318835341206268
0.00022900293827858285
