# vtk DataFile Version 2.0
mesh vtk view
ASCII
DATASET UNSTRUCTURED_GRID
POINTS 41 double
0.0 0.0 0.0
0.00010723545471628361 19.9992445019723 0.0
20.0 20.0 0.0
-0.00020347927532363312 0.9999622250977172 0.0
-0.0007710229194082979 1.9999244501956082 0.0
-0.0016382896594233376 2.999886675292414 0.0
-0.0027409382225384803 3.9998489003881086 0.0
-0.00401462733592538 4.999811125483803 0.0
-0.005395015726754881 5.999773350579497 0.0
-0.006817762122197832 6.9997355756751904 0.0
-0.008218525249425183 7.999697800770955 0.0
-0.009532963835612801 8.999660025870813 0.0
-0.010696736607925224 9.99962225097095 0.0
-0.011645502293532077 10.999584476071087 0.0
-0.012314919619603336 11.999546701171221 0.0
-0.01264064731330894 12.999508926271355 0.0
-0.01255834410181881 13.999471151371491 0.0
-0.012003668712302868 14.999433376471627 0.0
-0.010912279871931045 15.999395601571761 0.0
-0.009219836307873278 16.999357826671893 0.0
-0.006861996747299506 17.99932005177203 0.0
-0.003774419917379672 18.999282276872165 0.0
1.0001018736810825 19.994588537907664 0.0
2.0000965119076226 19.989497181683575 0.0
3.000091150133078 19.984345891988212 0.0
4.0000857883574215 19.979458234090778 0.0
5.000080426581765 19.97510587984149 0.0
6.000075064806108 19.971508607671623 0.0
7.000069703030451 19.968834302593468 0.0
8.000064341254864 19.96719895620036 0.0
9.000058979483372 19.966666666666665 0.0
10.000053617712156 19.96724963874779 0.0
11.000048255940943 19.96890818378017 0.0
12.000042894169727 19.97155071968126 0.0
13.00003753239851 19.975033770949562 0.0
14.000032170627295 19.979161968664602 0.0
15.000026808856079 19.98368805048694 0.0
16.000021447084862 19.98831286065817 0.0
17.000016085313646 19.992685350000915 0.0
18.00001072354243 19.99640257591884 0.0
19.000005361771215 19.999009702396627 0.0

CELLS 40 120
2 0 3
2 3 4
2 4 5
2 5 6
2 6 7
2 7 8
2 8 9
2 9 10
2 10 11
2 11 12
2 12 13
2 13 14
2 14 15
2 15 16
2 16 17
2 17 18
2 18 19
2 19 20
2 20 21
2 21 1
2 1 22
2 22 23
2 23 24
2 24 25
2 25 26
2 26 27
2 27 28
2 28 29
2 29 30
2 30 31
2 31 32
2 32 33
2 33 34
2 34 35
2 35 36
2 36 37
2 37 38
2 38 39
2 39 40
2 40 2

CELL_TYPES 40
3
3
3
3
3
3
3
3
3
3
3
3
3
3
3
3
3
3
3
3
3
3
3
3
3
3
3
3
3
3
3
3
3
3
3
3
3
3
3
3

POINT_DATA 41
SCALARS CellEntityIds float 1
LOOKUP_TABLE default
0.0
0.00017645487929356232
0.0
4.785715142055433e-05
0.00017914768875891231
0.0003797486067115248
0.0006347856701113123
0.0009293820859200112
0.001248661107407179
0.0015777464185265553
0.0019017623913919637
0.002205834423223718
0.0024750894589054976
0.0026946568567311974
0.0028496699025292553
0.0029252686238739754
0.0029066054262659497
0.002778857515316227
0.002527258025238122
0.0021371896925595265
0.0015945610713704167
0.0008884486393772768
0.0012515855062565824
0.0024288078019131794
0.003619967316199037
0.004750185003592792
0.005756625924258961
0.006588463457584184
0.0072068734663824335
0.007585032759148874
0.007708118565019143
0.0075733083218126095
0.00718977957967682
0.0065787099531831525
0.005773277095787221
0.004818658685420919
0.003772032415975909
0.002702575992067807
0.00169146712570729
0.0008318835341206268
0.00022900293827858285
