# vtk DataFile Version 2.0
mesh vtk view
ASCII
DATASET UNSTRUCTURED_GRID
POINTS 41 double
0.0 0.0 0.0
0.001394060911311687 19.99017852563991 0.0
20.0 20.0 0.0
-0.0026452305792072305 0.9995089262810979 0.0
-0.010023297952307872 1.9990178525623696 0.0
-0.021297765572503388 2.998526778842557 0.0
-0.03563219689300025 3.998035705121633 0.0
-0.05219015536702994 4.997544631400709 0.0
-0.07013520444781345 5.997053557679785 0.0
-0.08863090758857183 6.9965624839588605 0.0
-0.10684082824252737 7.996071410238006 0.0
-0.12392852986296642 8.995580336521245 0.0
-0.13905757590302792 9.99508926280476 0.0
-0.15139152981591703 10.994598189088277 0.0
-0.16009395505484336 11.994107115371792 0.0
-0.1643284150730162 12.993616041655306 0.0
-0.16325847332364452 13.99312496793882 0.0
-0.15604769325993728 14.992633894222337 0.0
-0.1418596383351036 15.99214282050585 0.0
-0.11985787200235261 16.991651746789362 0.0
-0.08920595771489358 17.99116067307288 0.0
-0.04906745892593574 18.990669599356394 0.0
1.0013243578648483 19.92965099279961 0.0
2.001254654818559 19.863463361886474 0.0
3.001184951771184 19.79649659584677 0.0
4.001115248722698 19.732957043180093 0.0
5.001045545674212 19.676376437939382 0.0
6.000975842625725 19.629611899731085 0.0
7.000906139577238 19.59484593371509 0.0
8.000836436528822 19.573586430604696 0.0
9.0007667334845 19.566666666666666 0.0
10.000697030440454 19.5742453037213 0.0
11.000627327396412 19.595806389142194 0.0
12.000557624352366 19.630159355856375 0.0
13.00048792130832 19.675439022344293 0.0
14.000418218264274 19.729105592639808 0.0
15.00034851522023 19.78794465633021 0.0
16.000278812176184 19.848067188556204 0.0
17.000209109132136 19.90490955001192 0.0
18.000139406088092 19.953233486944907 0.0
19.000069703044044 19.987126131156135 0.0

CELLS 40 120
2 0 3
2 3 4
2 4 5
2 5 6
2 6 7
2 7 8
2 8 9
2 9 10
2 10 11
2 11 12
2 12 13
2 13 14
2 14 15
2 15 16
2 16 17
2 17 18
2 18 19
2 19 20
2 20 21
2 21 1
2 1 22
2 22 23
2 23 24
2 24 25
2 25 26
2 26 27
2 27 28
2 28 29
2 29 30
2 30 31
2 31 32
2 32 33
2 33 34
2 34 35
2 35 36
2 36 37
2 37 38
2 38 39
2 39 40
2 40 2

CELL_TYPES 40
3
3
3
3
3
3
3
3
3
3
3
3
3
3
3
3
3
3
3
3
3
3
3
3
3
3
3
3
3
3
3
3
3
3
3
3
3
3
3
3

POINT_DATA 41
SCALARS CellEntityIds float 1
LOOKUP_TABLE default
0.0
0.00017645487929356232
0.0
4.785715142055433e-05
0.00017914768875891231
0.0003797486067115248
0.0006347856701113123
0.0009293820859200112
0.001248661107407179
0.0015777464185265553
0.0019017623913919637
0.002205834423223718
0.0024750894589054976
0.0026946568567311974
0.0028496699025292553
0.0029252686238739754
0.0029066054262659497
0.002778857515316227
0.002527258025238122
0.0021371896925595265
0.0015945610713704167
0.0008884486393772768
0.0012515855062565824
0.0024288078019131794
0.003619967316199037
0.004750185003592792
0.005756625924258961
0.006588463457584184
0.0072068734663824335
0.007585032759148874
0.007708118565019143
0.0075733083218126095
0.00718977957967682
0.0065787099531831525
0.005773277095787221
0.004818658685420919
0.003772032415975909
0.002702575992067807
0.00169146712570729
0.0008318835341206268
0.00022900293827858285
