# vtk DataFile Version 2.0
mesh vtk view
ASCII
DATASET UNSTRUCTURED_GRID
POINTS 41 double
0.0 0.0 0.0
0.00042894181886513446 19.996978007889204 0.0
20.0 20.0 0.0
-0.0008139171012945325 0.9998489003935623 0.0
-0.0030840916776331915 1.9996978007872985 0.0
-0.00655315863769335 2.9995467011799497 0.0
-0.010963752890153921 3.9993956015714898 0.0
-0.01605850934370152 4.999244501963029 0.0
-0.021580062907019523 5.999093402354569 0.0
-0.02727104848879133 6.998942302746109 0.0
-0.03287410099770073 7.998791203137718 0.0
-0.038131855342451206 8.998640103533422 0.0
-0.0427869464317009 9.998489003929402 0.0
-0.04658200917412831 10.998337904325384 0.0
-0.049259678478413345 11.998186804721364 0.0
-0.05056258925323576 12.998035705117344 0.0
-0.05023337640727524 13.997884605513324 0.0
-0.04801467484921147 14.997733505909304 0.0
-0.04364911948772418 15.997582406305282 0.0
-0.03687934523149311 16.997431306701262 0.0
-0.027447986989198023 17.99728020709724 0.0
-0.015097679669518688 18.997129107493222 0.0
1.0004074947270238 19.978354151630647 0.0
2.0003860476353568 19.9579887267343 0.0
3.0003646005426043 19.937383567952853 0.0
4.000343153448741 19.917832936363105 0.0
5.000321706354876 19.900423519365965 0.0
6.000300259261012 19.88603443068649 0.0
7.0002788121671475 19.87533721037387 0.0
8.000257365073354 19.868795824801445 0.0
9.000235917983654 19.866666666666667 0.0
10.00021447089423 19.86899855499117 0.0
11.00019302380481 19.875632735120675 0.0
12.000171576715386 19.88620287872504 0.0
13.000150129625963 19.900135083798244 0.0
14.00012868253654 19.916647874658402 0.0
15.000107235447118 19.934752201947756 0.0
16.000085788357694 19.953251442632677 0.0
17.000064341268267 19.970741400003668 0.0
18.000042894178847 19.985610303675355 0.0
19.000021447089424 19.996038809586505 0.0

CELLS 40 120
2 0 3
2 3 4
2 4 5
2 5 6
2 6 7
2 7 8
2 8 9
2 9 10
2 10 11
2 11 12
2 12 13
2 13 14
2 14 15
2 15 16
2 16 17
2 17 18
2 18 19
2 19 20
2 20 21
2 21 1
2 1 22
2 22 23
2 23 24
2 24 25
2 25 26
2 26 27
2 27 28
2 28 29
2 29 30
2 30 31
2 31 32
2 32 33
2 33 34
2 34 35
2 35 36
2 36 37
2 37 38
2 38 39
2 39 40
2 40 2

CELL_TYPES 40
3
3
3
3
3
3
3
3
3
3
3
3
3
3
3
3
3
3
3
3
3
3
3
3
3
3
3
3
3
3
3
3
3
3
3
3
3
3
3
3

POINT_DATA 41
SCALARS CellEntityIds float 1
LOOKUP_TABLE default
0.0
0.00017645487929356232
0.0
4.785715142055433e-05
0.00017914768875891231
0.0003797486067115248
0.0006347856701113123
0.0009293820859200112
0.001248661107407179
0.0015777464185265553
0.0019017623913919637
0.002205834423223718
0.0024750894589054976
0.0026946568567311974
0.0028496699025292553
0.0029252686238739754
0.0029066054262659497
0.002778857515316227
0.002527258025238122
0.0021371896925595265
0.0015945610713704167
0.0008884486393772768
0.0012515855062565824
0.0024288078019131794
0.003619967316199037
0.004750185003592792
0.005756625924258961
0.006588463457584184
0.0072068734663824335
0.007585032759148874
0.007708118565019143
0.0075733083218126095
0.00718977957967682
0.0065787099531831525
0.005773277095787221
0.004818658685420919
0.003772032415975909
0.002702575992067807
0.00169146712570729
0.0008318835341206268
0.00022900293827858285
