# vtk DataFile Version 2.0
mesh vtk view
ASCII
DATASET UNSTRUCTURED_GRID
POINTS 41 double
0.0 0.0 0.0
0.0011795900018791196 19.991689521695307 0.0
20.0 20.0 0.0
-0.0022382720285599638 0.9995844760838678 0.0
-0.008481252113491275 1.9991689521679095 0.0
-0.018021186253656712 2.9987534282508665 0.0
-0.03015032044792328 3.9983379043327125 0.0
-0.044160900695179174 4.9979223804145585 0.0
-0.05934517299430368 5.997506856496403 0.0
-0.07499538334417614 6.997091332578249 0.0
-0.090403777743677 7.996675808660164 0.0
-0.1048626021917408 8.996260284746173 0.0
-0.11766410268717745 9.995844760832458 0.0
-0.12810052522885285 10.995429236918746 0.0
-0.13546411581563667 11.995013713005031 0.0
-0.1390471204463983 12.994598189091313 0.0
-0.13814178512000688 13.994182665177599 0.0
-0.13204035583533152 14.993767141263884 0.0
-0.12003507859124149 15.993351617350168 0.0
-0.10141819938660604 16.99293609343645 0.0
-0.07548196422029456 17.992520569522735 0.0
-0.041518619091176386 18.992105045609023 0.0
1.0011206105008872 19.940473916984285 0.0
2.001061631000069 19.884468998519324 0.0
3.0010026514981663 19.827804811870344 0.0
4.000943671995151 19.77404057499854 0.0
5.0008846924921375 19.7261646782564 0.0
6.000825712989123 19.686594684387842 0.0
7.000766733486107 19.65717732852815 0.0
8.000707753983162 19.639188518203973 0.0
9.000648774484311 19.633333333333333 0.0
10.00058979498574 19.639746026225712 0.0
11.000530815487167 19.657990021581856 0.0
12.000471835988593 19.687057916493856 0.0
13.000412856490017 19.725371480445173 0.0
14.000353876991445 19.770781655310607 0.0
15.000294897492871 19.82056855535633 0.0
16.000235917994296 19.871441467239865 0.0
17.00017693849572 19.919538850010085 0.0
18.000117958997148 19.960428335107228 0.0
19.000058979498572 19.989106726362884 0.0

CELLS 40 120
2 0 3
2 3 4
2 4 5
2 5 6
2 6 7
2 7 8
2 8 9
2 9 10
2 10 11
2 11 12
2 12 13
2 13 14
2 14 15
2 15 16
2 16 17
2 17 18
2 18 19
2 19 20
2 20 21
2 21 1
2 1 22
2 22 23
2 23 24
2 24 25
2 25 26
2 26 27
2 27 28
2 28 29
2 29 30
2 30 31
2 31 32
2 32 33
2 33 34
2 34 35
2 35 36
2 36 37
2 37 38
2 38 39
2 39 40
2 40 2

CELL_TYPES 40
3
3
3
3
3
3
3
3
3
3
3
3
3
3
3
3
3
3
3
3
3
3
3
3
3
3
3
3
3
3
3
3
3
3
3
3
3
3
3
3

POINT_DATA 41
SCALARS CellEntityIds float 1
LOOKUP_TABLE default
0.0
0.00017645487929356232
0.0
4.785715142055433e-05
0.00017914768875891231
0.0003797486067115248
0.0006347856701113123
0.0009293820859200112
0.001248661107407179
0.0015777464185265553
0.0019017623913919637
0.002205834423223718
0.0024750894589054976
0.0026946568567311974
0.0028496699025292553
0.0029252686238739754
0.0029066054262659497
0.002778857515316227
0.002527258025238122
0.0021371896925595265
0.0015945610713704167
0.0008884486393772768
0.0012515855062565824
0.0024288078019131794
0.003619967316199037
0.004750185003592792
0.005756625924258961
0.006588463457584184
0.0072068734663824335
0.007585032759148874
0.007708118565019143
0.0075733083218126095
0.00718977957967682
0.0065787099531831525
0.005773277095787221
0.004818658685420919
0.003772032415975909
0.002702575992067807
0.00169146712570729
0.0008318835341206268
0.00022900293827858285
