# vtk DataFile Version 2.0
mesh vtk view
ASCII
DATASET UNSTRUCTURED_GRID
POINTS 41 double
0.0 0.0 0.0
0.001823002730176822 19.987156533529113 0.0
20.0 20.0 0.0
-0.0034591476805017635 0.9993578266755582 0.0
-0.013107389629941067 1.9987156533512902 0.0
-0.027850924210196745 2.998073480025938 0.0
-0.04659594978315418 3.9974313066994744 0.0
-0.06824866471073147 4.996789133373011 0.0
-0.091715267354833 5.996146960046548 0.0
-0.11590195607736317 6.995504786720084 0.0
-0.13971492924022813 7.99486261339369 0.0
-0.16206038520541766 8.994220440071388 0.0
-0.18184452233472884 9.993578266749363 0.0
-0.19797353899004536 10.99293609342734 0.0
-0.20935363353325676 11.992293920105315 0.0
-0.214891004326252 12.991651746783289 0.0
-0.2134918497309198 13.991009573461264 0.0
-0.2040623681091488 14.99036740013924 0.0
-0.18550875782282783 15.989725226817212 0.0
-0.15673721723384573 16.989083053495186 0.0
-0.11665394470409163 17.98844088017316 0.0
-0.06416513859545445 18.987798706851137 0.0
1.00173185259277 19.908005144430255 0.0
2.0016407024555374 19.821452088620774 0.0
3.0015495523172198 19.733880163799622 0.0
4.00145840217779 19.650789979543198 0.0
5.001367252038361 19.576799957305347 0.0
6.001276101898931 19.515646330417574 0.0
7.001184951759502 19.47018314408896 0.0
8.001093801620142 19.44238225540614 0.0
9.001002651484876 19.433333333333334 0.0
10.000911501349888 19.443243858712464 0.0
11.000820351214902 19.471439124262865 0.0
12.000729201079913 19.516362234581415 0.0
13.000638050944923 19.575574106142536 0.0
14.000546900809933 19.64575346729821 0.0
15.000455750674945 19.722696858277967 0.0
16.000364600539957 19.80131863118888 0.0
17.000273450404965 19.875650950015586 0.0
18.000182300269977 19.93884379062026 0.0
19.00009115013499 19.98316494074264 0.0

CELLS 40 120
2 0 3
2 3 4
2 4 5
2 5 6
2 6 7
2 7 8
2 8 9
2 9 10
2 10 11
2 11 12
2 12 13
2 13 14
2 14 15
2 15 16
2 16 17
2 17 18
2 18 19
2 19 20
2 20 21
2 21 1
2 1 22
2 22 23
2 23 24
2 24 25
2 25 26
2 26 27
2 27 28
2 28 29
2 29 30
2 30 31
2 31 32
2 32 33
2 33 34
2 34 35
2 35 36
2 36 37
2 37 38
2 38 39
2 39 40
2 40 2

CELL_TYPES 40
3
3
3
3
3
3
3
3
3
3
3
3
3
3
3
3
3
3
3
3
3
3
3
3
3
3
3
3
3
3
3
3
3
3
3
3
3
3
3
3

POINT_DATA 41
SCALARS CellEntityIds float 1
LOOKUP_TABLE default
0.0
0.00017645487929356232
0.0
4.785715142055433e-05
0.00017914768875891231
0.0003797486067115248
0.0006347856701113123
0.0009293820859200112
0.001248661107407179
0.0015777464185265553
0.0019017623913919637
0.002205834423223718
0.0024750894589054976
0.0026946568567311974
0.0028496699025292553
0.0029252686238739754
0.0029066054262659497
0.002778857515316227
0.002527258025238122
0.0021371896925595265
0.0015945610713704167
0.0008884486393772768
0.0012515855062565824
0.0024288078019131794
0.003619967316199037
0.004750185003592792
0.005756625924258961
0.006588463457584184
0.0072068734663824335
0.007585032759148874
0.007708118565019143
0.0075733083218126095
0.00718977957967682
0.0065787099531831525
0.005773277095787221
0.004818658685420919
0.003772032415975909
0.002702575992067807
0.00169146712570729
0.0008318835341206268
0.00022900293827858285
