# vtk DataFile Version 2.0
mesh vtk view
ASCII
DATASET UNSTRUCTURED_GRID
POINTS 41 double
0.0 0.0 0.0
0.0016085318207442547 19.98866752958451 0.0
20.0 20.0 0.0
-0.0030521891298544972 0.9994333764783281 0.0
-0.01156534379112447 1.9988667529568298 0.0
-0.024574344891350068 2.9983001294342473 0.0
-0.04111407333807722 3.9977335059105537 0.0
-0.06021941003888072 4.9971668823868605 0.0
-0.08092523590132324 5.996600258863166 0.0
-0.1022664318329675 6.996033635339472 0.0
-0.12327787874137777 7.995467011815848 0.0
-0.14299445753419204 8.994900388296317 0.0
-0.1604510491188784 9.994333764777062 0.0
-0.1746825344029812 10.993767141257809 0.0
-0.18472379429405006 11.993200517738554 0.0
-0.18960970969963412 12.992633894219297 0.0
-0.18837516152728218 13.992067270700042 0.0
-0.18005503068454307 14.991500647180787 0.0
-0.16368419807896573 15.99093402366153 0.0
-0.13829754461809918 16.990367400142276 0.0
-0.10292995120949261 17.98980077662302 0.0
-0.05661629876069509 18.989234153103766 0.0
1.0015281052288092 19.918828068614932 0.0
2.001447678637048 19.842457725253624 0.0
3.001367252044202 19.765188379823197 0.0
4.0012868254502445 19.691873511361646 0.0
5.0012063988562865 19.626588197622365 0.0
6.0011259722623285 19.57262911507433 0.0
7.00104554566837 19.532514538902024 0.0
8.000965119074483 19.50798434300542 0.0
9.000884692484687 19.5 0.0
10.000804265895171 19.50874458121688 0.0
11.000723839305657 19.533622756702528 0.0
12.000643412716139 19.573260795218896 0.0
13.00056298612662 19.625506564243416 0.0
14.000482559537105 19.68742952996901 0.0
15.000402132947588 19.755320757304087 0.0
16.00032170635807 19.824692909872542 0.0
17.00024127976855 19.890280250013753 0.0
18.000160853179032 19.946038638782586 0.0
19.000080426589516 19.98514553594939 0.0

CELLS 40 120
2 0 3
2 3 4
2 4 5
2 5 6
2 6 7
2 7 8
2 8 9
2 9 10
2 10 11
2 11 12
2 12 13
2 13 14
2 14 15
2 15 16
2 16 17
2 17 18
2 18 19
2 19 20
2 20 21
2 21 1
2 1 22
2 22 23
2 23 24
2 24 25
2 25 26
2 26 27
2 27 28
2 28 29
2 29 30
2 30 31
2 31 32
2 32 33
2 33 34
2 34 35
2 35 36
2 36 37
2 37 38
2 38 39
2 39 40
2 40 2

CELL_TYPES 40
3
3
3
3
3
3
3
3
3
3
3
3
3
3
3
3
3
3
3
3
3
3
3
3
3
3
3
3
3
3
3
3
3
3
3
3
3
3
3
3

POINT_DATA 41
SCALARS CellEntityIds float 1
LOOKUP_TABLE default
0.0
0.00017645487929356232
0.0
4.785715142055433e-05
0.00017914768875891231
0.0003797486067115248
0.0006347856701113123
0.0009293820859200112
0.001248661107407179
0.0015777464185265553
0.0019017623913919637
0.002205834423223718
0.0024750894589054976
0.0026946568567311974
0.0028496699025292553
0.0029252686238739754
0.0029066054262659497
0.002778857515316227
0.002527258025238122
0.0021371896925595265
0.0015945610713704167
0.0008884486393772768
0.0012515855062565824
0.0024288078019131794
0.003619967316199037
0.004750185003592792
0.005756625924258961
0.006588463457584184
0.0072068734663824335
0.007585032759148874
0.007708118565019143
0.0075733083218126095
0.00718977957967682
0.0065787099531831525
0.005773277095787221
0.004818658685420919
0.003772032415975909
0.002702575992067807
0.00169146712570729
0.0008318835341206268
0.00022900293827858285
