# vtk DataFile Version 2.0
mesh vtk view
ASCII
DATASET UNSTRUCTURED_GRID
POINTS 41 double
0.0 0.0 0.0
0.0022519445490419565 19.984134541418314 0.0
20.0 20.0 0.0
-0.004273064781796296 0.9992067270700185 0.0
-0.01619148130757426 1.9984134541402108 0.0
-0.034404082847890094 2.9976201812093186 0.0
-0.0575597026733081 3.996826908277316 0.0
-0.084307174054433 4.996033635345313 0.0
-0.11329533026185251 5.99524036241331 0.0
-0.1431730045661545 6.994447089481307 0.0
-0.17258903023792888 7.993653816549374 0.0
-0.20019224054786885 8.992860543621532 0.0
-0.22463146876642975 9.992067270693967 0.0
-0.2445555481641737 10.991273997766404 0.0
-0.2586133120116701 11.99048072483884 0.0
-0.2654535935794878 12.989687451911273 0.0
-0.26372522613819505 13.988894178983708 0.0
-0.25207704295836025 14.988100906056143 0.0
-0.229157877310552 15.987307633128575 0.0
-0.19361656246533884 16.98651436020101 0.0
-0.14410193169328964 17.985721087273443 0.0
-0.07926281826497313 18.98492781434588 0.0
1.002139347320692 19.886359296060906 0.0
2.002026750092516 19.779440815355073 0.0
3.001914152863255 19.671263731752475 0.0
4.001801555632882 19.568622915906303 0.0
5.00168895840251 19.47722347667131 0.0
6.001576361172137 19.401680761104064 0.0
7.001463763941764 19.345520354462835 0.0
8.00135116671146 19.311178080207586 0.0
9.001238569485253 19.3 0.0
10.00112597225932 19.312242413703633 0.0
11.001013375033391 19.34707185938354 0.0
12.000900777807459 19.40256511330645 0.0
13.000788180581525 19.47570918994078 0.0
14.000675583355594 19.562401341956615 0.0
15.000562986129662 19.657449060225723 0.0
16.00045038890373 19.75457007382156 0.0
17.000337791677794 19.846392350019254 0.0
18.000225194451865 19.92445409429562 0.0
19.000112597225932 19.979203750329145 0.0

CELLS 40 120
2 0 3
2 3 4
2 4 5
2 5 6
2 6 7
2 7 8
2 8 9
2 9 10
2 10 11
2 11 12
2 12 13
2 13 14
2 14 15
2 15 16
2 16 17
2 17 18
2 18 19
2 19 20
2 20 21
2 21 1
2 1 22
2 22 23
2 23 24
2 24 25
2 25 26
2 26 27
2 27 28
2 28 29
2 29 30
2 30 31
2 31 32
2 32 33
2 33 34
2 34 35
2 35 36
2 36 37
2 37 38
2 38 39
2 39 40
2 40 2

CELL_TYPES 40
3
3
3
3
3
3
3
3
3
3
3
3
3
3
3
3
3
3
3
3
3
3
3
3
3
3
3
3
3
3
3
3
3
3
3
3
3
3
3
3

POINT_DATA 41
SCALARS CellEntityIds float 1
LOOKUP_TABLE default
0.0
0.00017645487929356232
0.0
4.785715142055433e-05
0.00017914768875891231
0.0003797486067115248
0.0006347856701113123
0.0009293820859200112
0.001248661107407179
0.0015777464185265553
0.0019017623913919637
0.002205834423223718
0.0024750894589054976
0.0026946568567311974
0.0028496699025292553
0.0029252686238739754
0.0029066054262659497
0.002778857515316227
0.002527258025238122
0.0021371896925595265
0.0015945610713704167
0.0008884486393772768
0.0012515855062565824
0.0024288078019131794
0.003619967316199037
0.004750185003592792
0.005756625924258961
0.006588463457584184
0.0072068734663824335
0.007585032759148874
0.007708118565019143
0.0075733083218126095
0.00718977957967682
0.0065787099531831525
0.005773277095787221
0.004818658685420919
0.003772032415975909
0.002702575992067807
0.00169146712570729
0.0008318835341206268
0.00022900293827858285
