# vtk DataFile Version 2.0
mesh vtk view
ASCII
DATASET UNSTRUCTURED_GRID
POINTS 41 double
0.0 0.0 0.0
0.003002592732055941 19.97884605522442 0.0
20.0 20.0 0.0
-0.0056974197090617264 0.9989423027603239 0.0
-0.02158864174343234 1.9978846055208215 0.0
-0.04587211046385345 2.9968269082802355 0.0
-0.07674627023107744 3.9957692110385388 0.0
-0.11240956540591064 4.994711513796842 0.0
-0.15106044034913665 5.9936538165551445 0.0
-0.19089733942153927 6.992596119313448 0.0
-0.23011870698390507 7.99153842207182 0.0
-0.2669229873971584 8.990480724834283 0.0
-0.2995086250219062 9.989423027597024 0.0
-0.3260740642188982 10.988365330359764 0.0
-0.34481774934889337 11.987307633122505 0.0
-0.35393812477265024 12.986249935885244 0.0
-0.35163363485092664 13.985192238647983 0.0
-0.33610272394448026 14.984134541410723 0.0
-0.30554383641406924 15.98307684417346 0.0
-0.2581554166204517 16.9820191469362 0.0
-0.19213590892438615 17.98096144969894 0.0
-0.10568375768663081 18.97990375246168 0.0
1.0028524630945552 19.84847906141454 0.0
2.0027023334572287 19.705921087140098 0.0
3.002552203818817 19.561684975669966 0.0
4.002402074179294 19.42483055454174 0.0
5.002251944539771 19.302964635561747 0.0
6.002101814900247 19.202241014805416 0.0
7.001951685260724 19.12736047261711 0.0
8.00180155562127 19.081570773610117 0.0
9.00165142598591 19.066666666666666 0.0
10.001501296350828 19.08298988493818 0.0
11.001351166715747 19.12942914584472 0.0
12.001201037080666 19.20342015107527 0.0
13.001050907445581 19.30094558658771 0.0
14.000900777810498 19.41653512260882 0.0
15.000750648175416 19.5432654136343 0.0
16.00060051854033 19.672760098428746 0.0
17.000450388905247 19.795189800025675 0.0
18.000300259270166 19.899272125727492 0.0
19.00015012963508 19.972271667105524 0.0

CELLS 40 120
2 0 3
2 3 4
2 4 5
2 5 6
2 6 7
2 7 8
2 8 9
2 9 10
2 10 11
2 11 12
2 12 13
2 13 14
2 14 15
2 15 16
2 16 17
2 17 18
2 18 19
2 19 20
2 20 21
2 21 1
2 1 22
2 22 23
2 23 24
2 24 25
2 25 26
2 26 27
2 27 28
2 28 29
2 29 30
2 30 31
2 31 32
2 32 33
2 33 34
2 34 35
2 35 36
2 36 37
2 37 38
2 38 39
2 39 40
2 40 2

CELL_TYPES 40
3
3
3
3
3
3
3
3
3
3
3
3
3
3
3
3
3
3
3
3
3
3
3
3
3
3
3
3
3
3
3
3
3
3
3
3
3
3
3
3

POINT_DATA 41
SCALARS CellEntityIds float 1
LOOKUP_TABLE default
0.0
0.00017645487929356232
0.0
4.785715142055433e-05
0.00017914768875891231
0.0003797486067115248
0.0006347856701113123
0.0009293820859200112
0.001248661107407179
0.0015777464185265553
0.0019017623913919637
0.002205834423223718
0.0024750894589054976
0.0026946568567311974
0.0028496699025292553
0.0029252686238739754
0.0029066054262659497
0.002778857515316227
0.002527258025238122
0.0021371896925595265
0.0015945610713704167
0.0008884486393772768
0.0012515855062565824
0.0024288078019131794
0.003619967316199037
0.004750185003592792
0.005756625924258961
0.006588463457584184
0.0072068734663824335
0.007585032759148874
0.007708118565019143
0.0075733083218126095
0.00718977957967682
0.0065787099531831525
0.005773277095787221
0.004818658685420919
0.003772032415975909
0.002702575992067807
0.00169146712570729
0.0008318835341206268
0.00022900293827858285
