# vtk DataFile Version 2.0
mesh vtk view
ASCII
DATASET UNSTRUCTURED_GRID
POINTS 41 double
0.0 0.0 0.0
0.0012868254565954035 19.99093402366761 0.0
20.0 20.0 0.0
-0.0024417513038835974 0.9995467011824829 0.0
-0.009252275032899574 1.9990934023651394 0.0
-0.01965947591308005 2.9986401035467116 0.0
-0.03289125867046177 3.9981868047271725 0.0
-0.048175528031104566 4.997733505907633 0.0
-0.06474018872105858 5.997280207088094 0.0
-0.08181314546637398 6.996826908268555 0.0
-0.09862230299310219 7.996373609449085 0.0
-0.11439556602735361 8.995920310633709 0.0
-0.1283608392951027 9.99546701181861 0.0
-0.13974602752238494 10.99501371300351 0.0
-0.14777903543524 11.994560414188411 0.0
-0.15168776775970727 12.99410711537331 0.0
-0.1507001292218257 13.99365381655821 0.0
-0.14404402454763443 14.99320051774311 0.0
-0.13094735846317254 15.99274721892801 0.0
-0.11063803569447933 16.992293920112907 0.0
-0.08234396096759407 17.991840621297808 0.0
-0.045293039008556066 18.99138732248271 0.0
1.0012224841828676 19.935062454891945 0.0
2.001158142909314 19.8739661802029 0.0
3.001093801634675 19.812150703858556 0.0
4.001029460358925 19.753498809089315 0.0
5.000965119083174 19.701270558097892 0.0
6.0009007778074235 19.658103292059465 0.0
7.000836436531673 19.626011631121617 0.0
8.000772095255993 19.606387474404336 0.0
9.000707753984406 19.6 0.0
10.000643412713096 19.606995664973503 0.0
11.00057907144179 19.626898205362025 0.0
12.00051473017048 19.658608636175117 0.0
13.000450388899168 19.70040525139473 0.0
14.00038604762786 19.74994362397521 0.0
15.00032170635655 19.80425660584327 0.0
16.00025736508524 19.859754327898035 0.0
17.000193023813928 19.912224200011003 0.0
18.00012868254262 19.956830911026067 0.0
19.000064341271308 19.98811642875951 0.0

CELLS 40 120
2 0 3
2 3 4
2 4 5
2 5 6
2 6 7
2 7 8
2 8 9
2 9 10
2 10 11
2 11 12
2 12 13
2 13 14
2 14 15
2 15 16
2 16 17
2 17 18
2 18 19
2 19 20
2 20 21
2 21 1
2 1 22
2 22 23
2 23 24
2 24 25
2 25 26
2 26 27
2 27 28
2 28 29
2 29 30
2 30 31
2 31 32
2 32 33
2 33 34
2 34 35
2 35 36
2 36 37
2 37 38
2 38 39
2 39 40
2 40 2

CELL_TYPES 40
3
3
3
3
3
3
3
3
3
3
3
3
3
3
3
3
3
3
3
3
3
3
3
3
3
3
3
3
3
3
3
3
3
3
3
3
3
3
3
3

POINT_DATA 41
SCALARS CellEntityIds float 1
LOOKUP_TABLE default
0.0
0.00017645487929356232
0.0
4.785715142055433e-05
0.00017914768875891231
0.0003797486067115248
0.0006347856701113123
0.0009293820859200112
0.001248661107407179
0.0015777464185265553
0.0019017623913919637
0.002205834423223718
0.0024750894589054976
0.0026946568567311974
0.0028496699025292553
0.0029252686238739754
0.0029066054262659497
0.002778857515316227
0.002527258025238122
0.0021371896925595265
0.0015945610713704167
0.0008884486393772768
0.0012515855062565824
0.0024288078019131794
0.003619967316199037
0.004750185003592792
0.005756625924258961
0.006588463457584184
0.0072068734663824335
0.007585032759148874
0.007708118565019143
0.0075733083218126095
0.00718977957967682
0.0065787099531831525
0.005773277095787221
0.004818658685420919
0.003772032415975909
0.002702575992067807
0.00169146712570729
0.0008318835341206268
0.00022900293827858285
