# vtk DataFile Version 2.0
mesh vtk view
ASCII
DATASET UNSTRUCTURED_GRID
POINTS 41 double
0.0 0.0 0.0
0.0003217063641488509 19.9977335059169 0.0
20.0 20.0 0.0
-0.0006104378259708993 0.9998866752949472 0.0
-0.0023130687582248936 1.9997733505900683 0.0
-0.004914868978270013 2.9996600258841046 0.0
-0.008222814667615442 3.9995467011770294 0.0
-0.012043882007776141 4.999433376469954 0.0
-0.016185047180264645 5.999320051762878 0.0
-0.020453286366593496 6.999206727055802 0.0
-0.024655575748275548 7.999093402348797 0.0
-0.028598891506838402 8.998980077645886 0.0
-0.032090209823775674 9.99886675294325 0.0
-0.034936506880596234 10.998753428240619 0.0
-0.03694475885881 11.998640103537983 0.0
-0.03792194193992682 12.998526778835346 0.0
-0.03767503230545643 13.998413454132713 0.0
-0.03601100613690861 14.998300129430078 0.0
-0.032736839615793135 15.998186804727442 0.0
-0.027659508923619833 16.998073480024807 0.0
-0.020585990241898517 17.997960155322172 0.0
-0.011323259752139016 18.997846830619537 0.0
1.0003056210450434 19.983765613722987 0.0
2.000289535726112 19.968491545050725 0.0
3.0002734504060955 19.95303767596464 0.0
4.000257365084967 19.93837470227233 0.0
5.00024127976384 19.925317639524472 0.0
6.00022519444271 19.914525823014866 0.0
7.000209109121582 19.906502907780403 0.0
8.000193023800524 19.901596868601082 0.0
9.000176938483559 19.9 0.0
10.000160853166873 19.901748916243378 0.0
11.000144767850188 19.906724551340506 0.0
12.0001286825335 19.91465215904378 0.0
13.000112597216813 19.925101312848682 0.0
14.000096511900125 19.937485905993803 0.0
15.000080426583438 19.951064151460816 0.0
16.00006434126675 19.964938581974508 0.0
17.00004825595006 19.97805605000275 0.0
18.000032170633375 19.98920772775652 0.0
19.000016085316688 19.997029107189878 0.0

CELLS 40 120
2 0 3
2 3 4
2 4 5
2 5 6
2 6 7
2 7 8
2 8 9
2 9 10
2 10 11
2 11 12
2 12 13
2 13 14
2 14 15
2 15 16
2 16 17
2 17 18
2 18 19
2 19 20
2 20 21
2 21 1
2 1 22
2 22 23
2 23 24
2 24 25
2 25 26
2 26 27
2 27 28
2 28 29
2 29 30
2 30 31
2 31 32
2 32 33
2 33 34
2 34 35
2 35 36
2 36 37
2 37 38
2 38 39
2 39 40
2 40 2

CELL_TYPES 40
3
3
3
3
3
3
3
3
3
3
3
3
3
3
3
3
3
3
3
3
3
3
3
3
3
3
3
3
3
3
3
3
3
3
3
3
3
3
3
3

POINT_DATA 41
SCALARS CellEntityIds float 1
LOOKUP_TABLE default
0.0
0.00017645487929356232
0.0
4.785715142055433e-05
0.00017914768875891231
0.0003797486067115248
0.0006347856701113123
0.0009293820859200112
0.001248661107407179
0.0015777464185265553
0.0019017623913919637
0.002205834423223718
0.0024750894589054976
0.0026946568567311974
0.0028496699025292553
0.0029252686238739754
0.0029066054262659497
0.002778857515316227
0.002527258025238122
0.0021371896925595265
0.0015945610713704167
0.0008884486393772768
0.0012515855062565824
0.0024288078019131794
0.003619967316199037
0.004750185003592792
0.005756625924258961
0.006588463457584184
0.0072068734663824335
0.007585032759148874
0.007708118565019143
0.0075733083218126095
0.00718977957967682
0.0065787099531831525
0.005773277095787221
0.004818658685420919
0.003772032415975909
0.002702575992067807
0.00169146712570729
0.0008318835341206268
0.00022900293827858285
