# vtk DataFile Version 2.0
mesh vtk view
ASCII
DATASET UNSTRUCTURED_GRID
POINTS 100 double
-0.5 -0.5 0.0
0.5 -0.5 0.0
0.5 0.5 0.0
-0.5 0.5 0.0
-0.3888888888888889 -0.5 0.0
-0.2777777777777778 -0.5 0.0
-0.1666666666666667 -0.5 0.0
-0.05555555555555558 -0.5 0.0
0.05555555555555558 -0.5 0.0
0.1666666666666666 -0.5 0.0
0.2777777777777777 -0.5 0.0
0.3888888888888888 -0.5 0.0
0.5 -0.3888888888888889 0.0
0.5 -0.2777777777777778 0.0
0.5 -0.1666666666666667 0.0
0.5 -0.05555555555555558 0.0
0.5 0.05555555555555558 0.0
0.5 0.1666666666666666 0.0
0.5 0.2777777777777777 0.0
0.5 0.3888888888888888 0.0
0.3888888888888889 0.5 0.0
0.2777777777777778 0.5 0.0
0.1666666666666667 0.5 0.0
0.05555555555555558 0.5 0.0
-0.05555555555555558 0.5 0.0
-0.1666666666666666 0.5 0.0
-0.2777777777777777 0.5 0.0
-0.3888888888888888 0.5 0.0
-0.5 0.3888888888888889 0.0
-0.5 0.2777777777777778 0.0
-0.5 0.1666666666666667 0.0
-0.5 0.05555555555555558 0.0
-0.5 -0.05555555555555558 0.0
-0.5 -0.1666666666666666 0.0
-0.5 -0.2777777777777777 0.0
-0.5 -0.3888888888888888 0.0
-0.3888888888888888 -0.3888888888888888 0.0
-0.3888888888888888 -0.2777777777777776 0.0
-0.3888888888888887 -0.1666666666666666 0.0
-0.388888888888889 -0.05555555555555558 0.0
-0.3888888888888888 0.05555555555555561 0.0
-0.3888888888888888 0.1666666666666667 0.0
-0.3888888888888888 0.2777777777777777 0.0
-0.3888888888888888 0.3888888888888888 0.0
-0.2777777777777778 -0.3888888888888888 0.0
-0.2777777777777778 -0.2777777777777776 0.0
-0.2777777777777778 -0.1666666666666667 0.0
-0.2777777777777778 -0.05555555555555558 0.0
-0.2777777777777778 0.05555555555555558 0.0
-0.2777777777777778 0.1666666666666667 0.0
-0.2777777777777778 0.2777777777777778 0.0
-0.2777777777777777 0.3888888888888888 0.0
-0.1666666666666667 -0.3888888888888888 0.0
-0.1666666666666667 -0.2777777777777777 0.0
-0.1666666666666667 -0.1666666666666667 0.0
-0.1666666666666667 -0.05555555555555561 0.0
-0.1666666666666667 0.05555555555555561 0.0
-0.1666666666666667 0.1666666666666667 0.0
-0.1666666666666667 0.2777777777777778 0.0
-0.1666666666666666 0.3888888888888888 0.0
-0.05555555555555561 -0.3888888888888888 0.0
-0.05555555555555558 -0.2777777777777778 0.0
-0.05555555555555561 -0.1666666666666667 0.0
-0.05555555555555558 -0.05555555555555558 0.0
-0.05555555555555558 0.05555555555555558 0.0
-0.05555555555555561 0.1666666666666666 0.0
-0.05555555555555555 0.2777777777777777 0.0
-0.05555555555555561 0.3888888888888888 0.0
0.05555555555555561 -0.3888888888888888 0.0
0.05555555555555558 -0.2777777777777778 0.0
0.05555555555555561 -0.1666666666666667 0.0
0.05555555555555558 -0.05555555555555558 0.0
0.05555555555555558 0.05555555555555558 0.0
0.05555555555555561 0.1666666666666666 0.0
0.05555555555555555 0.2777777777777777 0.0
0.05555555555555558 0.3888888888888888 0.0
0.1666666666666667 -0.3888888888888888 0.0
0.1666666666666666 -0.2777777777777778 0.0
0.1666666666666667 -0.1666666666666667 0.0
0.1666666666666666 -0.05555555555555559 0.0
0.1666666666666667 0.05555555555555559 0.0
0.1666666666666666 0.1666666666666666 0.0
0.1666666666666667 0.2777777777777777 0.0
0.1666666666666667 0.3888888888888888 0.0
0.2777777777777777 -0.3888888888888888 0.0
0.2777777777777777 -0.2777777777777778 0.0
0.2777777777777777 -0.1666666666666666 0.0
0.2777777777777777 -0.05555555555555557 0.0
0.2777777777777777 0.05555555555555557 0.0
0.2777777777777777 0.1666666666666667 0.0
0.2777777777777778 0.2777777777777777 0.0
0.2777777777777778 0.3888888888888888 0.0
0.3888888888888888 -0.3888888888888888 0.0
0.3888888888888888 -0.2777777777777778 0.0
0.3888888888888889 -0.1666666666666667 0.0
0.3888888888888888 -0.05555555555555559 0.0
0.3888888888888888 0.05555555555555559 0.0
0.3888888888888888 0.1666666666666666 0.0
0.3888888888888889 0.2777777777777777 0.0
0.3888888888888888 0.3888888888888888 0.0

CELLS 162 648
3 0 4 35
3 35 4 36
3 35 36 34
3 34 36 37
3 34 37 33
3 33 37 38
3 33 38 32
3 32 38 39
3 32 39 31
3 31 39 40
3 31 40 30
3 30 40 41
3 30 41 29
3 29 41 42
3 29 42 28
3 28 42 43
3 28 43 3
3 3 43 27
3 4 5 36
3 36 5 44
3 36 44 37
3 37 44 45
3 37 45 38
3 38 45 46
3 38 46 39
3 39 46 47
3 39 47 40
3 40 47 48
3 40 48 41
3 41 48 49
3 41 49 42
3 42 49 50
3 42 50 43
3 43 50 51
3 43 51 27
3 27 51 26
3 5 6 44
3 44 6 52
3 44 52 45
3 45 52 53
3 45 53 46
3 46 53 54
3 46 54 47
3 47 54 55
3 47 55 48
3 48 55 56
3 48 56 49
3 49 56 57
3 49 57 50
3 50 57 58
3 50 58 51
3 51 58 59
3 51 59 26
3 26 59 25
3 6 7 52
3 52 7 60
3 52 60 53
3 53 60 61
3 53 61 54
3 54 61 62
3 54 62 55
3 55 62 63
3 55 63 56
3 56 63 64
3 56 64 57
3 57 64 65
3 57 65 58
3 58 65 66
3 58 66 59
3 59 66 67
3 59 67 25
3 25 67 24
3 7 8 60
3 60 8 68
3 60 68 61
3 61 68 69
3 61 69 62
3 62 69 70
3 62 70 63
3 63 70 71
3 63 71 64
3 64 71 72
3 64 72 65
3 65 72 73
3 65 73 66
3 66 73 74
3 66 74 67
3 67 74 75
3 67 75 24
3 24 75 23
3 8 9 68
3 68 9 76
3 68 76 69
3 69 76 77
3 69 77 70
3 70 77 78
3 70 78 71
3 71 78 79
3 71 79 72
3 72 79 80
3 72 80 73
3 73 80 81
3 73 81 74
3 74 81 82
3 74 82 75
3 75 82 83
3 75 83 23
3 23 83 22
3 9 10 76
3 76 10 84
3 76 84 77
3 77 84 85
3 77 85 78
3 78 85 86
3 78 86 79
3 79 86 87
3 79 87 80
3 80 87 88
3 80 88 81
3 81 88 89
3 81 89 82
3 82 89 90
3 82 90 83
3 83 90 91
3 83 91 22
3 22 91 21
3 10 11 84
3 84 11 92
3 84 92 85
3 85 92 93
3 85 93 86
3 86 93 94
3 86 94 87
3 87 94 95
3 87 95 88
3 88 95 96
3 88 96 89
3 89 96 97
3 89 97 90
3 90 97 98
3 90 98 91
3 91 98 99
3 91 99 21
3 21 99 20
3 11 1 92
3 92 1 12
3 92 12 93
3 93 12 13
3 93 13 94
3 94 13 14
3 94 14 95
3 95 14 15
3 95 15 96
3 96 15 16
3 96 16 97
3 97 16 17
3 97 17 98
3 98 17 18
3 98 18 99
3 99 18 19
3 99 19 20
3 20 19 2

CELL_TYPES 162
5
5
5
5
5
5
5
5
5
5
5
5
5
5
5
5
5
5
5
5
5
5
5
5
5
5
5
5
5
5
5
5
5
5
5
5
5
5
5
5
5
5
5
5
5
5
5
5
5
5
5
5
5
5
5
5
5
5
5
5
5
5
5
5
5
5
5
5
5
5
5
5
5
5
5
5
5
5
5
5
5
5
5
5
5
5
5
5
5
5
5
5
5
5
5
5
5
5
5
5
5
5
5
5
5
5
5
5
5
5
5
5
5
5
5
5
5
5
5
5
5
5
5
5
5
5
5
5
5
5
5
5
5
5
5
5
5
5
5
5
5
5
5
5
5
5
5
5
5
5
5
5
5
5
5
5
5
5
5
5
5
5

CELL_DATA 162
SCALARS CellEntityIds float 1
LOOKUP_TABLE default
1.0
1.0
1.0
1.0
1.0
1.0
1.0
1.0
1.0
1.0
1.0
1.0
1.0
1.0
1.0
1.0
1.0
1.0
1.0
1.0
1.0
1.0
1.0
1.0
1.0
1.0
1.0
1.0
1.0
1.0
1.0
1.0
1.0
1.0
1.0
1.0
1.0
1.0
1.0
1.0
1.0
1.0
1.0
1.0
1.0
1.0
1.0
1.0
1.0
1.0
1.0
1.0
1.0
1.0
1.0
1.0
1.0
1.0
1.0
1.0
1.0
1.0
1.0
1.0
1.0
1.0
1.0
1.0
1.0
1.0
1.0
1.0
1.0
1.0
1.0
1.0
1.0
1.0
1.0
1.0
1.0
1.0
1.0
1.0
1.0
1.0
1.0
1.0
1.0
1.0
1.0
1.0
1.0
1.0
1.0
1.0
1.0
1.0
1.0
1.0
1.0
1.0
1.0
1.0
1.0
1.0
1.0
1.0
1.0
1.0
1.0
1.0
1.0
1.0
1.0
1.0
1.0
1.0
1.0
1.0
1.0
1.0
1.0
1.0
1.0
1.0
1.0
1.0
1.0
1.0
1.0
1.0
1.0
1.0
1.0
1.0
1.0
1.0
1.0
1.0
1.0
1.0
1.0
1.0
1.0
1.0
1.0
1.0
1.0
1.0
1.0
1.0
1.0
1.0
1.0
1.0
1.0
1.0
1.0
1.0
1.0
1.0
