# vtk DataFile Version 2.0
mesh vtk view
ASCII
DATASET UNSTRUCTURED_GRID
POINTS 41 double
0.0 0.0 0.0
0.0019302381848931055 19.986401035501412 0.0
20.0 20.0 0.0
-0.0036626269558253967 0.9993200517741733 0.0
-0.013878412549349364 1.9986401035485202 0.0
-0.02948921386962008 2.997960155321783 0.0
-0.04933688800569266 3.997280207093935 0.0
-0.07226329204665685 4.996600258866087 0.0
-0.09711028308158788 5.995920310638238 0.0
-0.122719718199561 6.99524036241039 0.0
-0.1479334544896533 7.994560414182611 0.0
-0.17159334904103046 8.993880465958924 0.0
-0.19254125894265406 9.993200517735515 0.0
-0.20961904128357745 10.992520569512106 0.0
-0.22166855315286008 11.991840621288697 0.0
-0.22753165163956093 12.991160673065284 0.0
-0.2260501938327386 13.990480724841875 0.0
-0.21606603682145167 14.989800776618464 0.0
-0.19642103769475885 15.989120828395054 0.0
-0.16595705354171902 16.98844088017164 0.0
-0.12351594145139112 17.98776093194823 0.0
-0.0679395585128341 18.987080983724823 0.0
1.0018337262747505 19.90259368233792 0.0
2.001737214364782 19.81094927030435 0.0
3.0016407024537286 19.718226055787834 0.0
4.001544190541563 19.630248213633976 0.0
5.001447678629398 19.551905837146837 0.0
6.001351166717233 19.487154938089198 0.0
7.001254654805067 19.439017446682428 0.0
8.001158142892972 19.409581211606504 0.0
9.001061630984971 19.4 0.0
10.000965119077247 19.41049349746026 0.0
11.000868607169524 19.440347308043034 0.0
12.0007720952618 19.487912954262676 0.0
13.000675583354074 19.550607877092098 0.0
14.00057907144635 19.624915435962812 0.0
15.000482559538625 19.706384908764907 0.0
16.000386047630897 19.789631491847054 0.0
17.000289535723173 19.868336300016505 0.0
18.00019302381545 19.9352463665391 0.0
19.000096511907724 19.982174643139267 0.0

CELLS 40 120
2 0 3
2 3 4
2 4 5
2 5 6
2 6 7
2 7 8
2 8 9
2 9 10
2 10 11
2 11 12
2 12 13
2 13 14
2 14 15
2 15 16
2 16 17
2 17 18
2 18 19
2 19 20
2 20 21
2 21 1
2 1 22
2 22 23
2 23 24
2 24 25
2 25 26
2 26 27
2 27 28
2 28 29
2 29 30
2 30 31
2 31 32
2 32 33
2 33 34
2 34 35
2 35 36
2 36 37
2 37 38
2 38 39
2 39 40
2 40 2

CELL_TYPES 40
3
3
3
3
3
3
3
3
3
3
3
3
3
3
3
3
3
3
3
3
3
3
3
3
3
3
3
3
3
3
3
3
3
3
3
3
3
3
3
3

POINT_DATA 41
SCALARS CellEntityIds float 1
LOOKUP_TABLE default
0.0
0.00017645487929356232
0.0
4.785715142055433e-05
0.00017914768875891231
0.0003797486067115248
0.0006347856701113123
0.0009293820859200112
0.001248661107407179
0.0015777464185265553
0.0019017623913919637
0.002205834423223718
0.0024750894589054976
0.0026946568567311974
0.0028496699025292553
0.0029252686238739754
0.0029066054262659497
0.002778857515316227
0.002527258025238122
0.0021371896925595265
0.0015945610713704167
0.0008884486393772768
0.0012515855062565824
0.0024288078019131794
0.003619967316199037
0.004750185003592792
0.005756625924258961
0.006588463457584184
0.0072068734663824335
0.007585032759148874
0.007708118565019143
0.0075733083218126095
0.00718977957967682
0.0065787099531831525
0.005773277095787221
0.004818658685420919
0.003772032415975909
0.002702575992067807
0.00169146712570729
0.0008318835341206268
0.00022900293827858285
