# vtk DataFile Version 2.0
mesh vtk view
ASCII
DATASET UNSTRUCTURED_GRID
POINTS 41 double
0.0 0.0 0.0
0.0027881218226233737 19.980357051279817 0.0
20.0 20.0 0.0
-0.00529046115841446 0.9990178525630938 0.0
-0.020046595904615744 1.9980357051263613 0.0
-0.04259553114500677 2.997053557688545 0.0
-0.07126439378600048 3.996071410249618 0.0
-0.10438031073405987 4.995089262810691 0.0
-0.1402704088956269 5.994107115371763 0.0
-0.17726181517714362 6.993124967932836 0.0
-0.21368165648505472 7.992142820493979 0.0
-0.2478570597259328 8.99116067305921 0.0
-0.2781151518060558 9.99017852562472 0.0
-0.302783059631834 10.989196378190233 0.0
-0.32018791010968667 11.988214230755743 0.0
-0.32865683014603236 12.987232083321251 0.0
-0.32651694664728903 13.986249935886761 0.0
-0.31209538651987456 14.985267788452271 0.0
-0.28371927667020713 15.98428564101778 0.0
-0.2397157440047052 16.98330349358329 0.0
-0.17841191542978713 17.982321346148797 0.0
-0.09813491785187146 18.98133919871431 0.0
1.0026487157305943 19.859301985599217 0.0
2.0025093096387394 19.726926723772948 0.0
3.0023699035457994 19.59299319169354 0.0
4.002230497451748 19.465914086360186 0.0
5.002091091357697 19.352752875878764 0.0
6.001951685263644 19.259223799462173 0.0
7.0018122791695925 19.189691867430174 0.0
8.001672873075611 19.147172861209395 0.0
9.001533466985723 19.133333333333333 0.0
10.001394060896112 19.148490607442593 0.0
11.001254654806504 19.191612778284384 0.0
12.001115248716891 19.260318711712753 0.0
13.000975842627279 19.350878044688585 0.0
14.000836436537668 19.458211185279616 0.0
15.000697030448057 19.575889312660422 0.0
16.000557624358446 19.696134377112408 0.0
17.000418218268834 19.80981910002384 0.0
18.00027881217922 19.906466973889813 0.0
19.000139406089612 19.974252262312273 0.0

CELLS 40 120
2 0 3
2 3 4
2 4 5
2 5 6
2 6 7
2 7 8
2 8 9
2 9 10
2 10 11
2 11 12
2 12 13
2 13 14
2 14 15
2 15 16
2 16 17
2 17 18
2 18 19
2 19 20
2 20 21
2 21 1
2 1 22
2 22 23
2 23 24
2 24 25
2 25 26
2 26 27
2 27 28
2 28 29
2 29 30
2 30 31
2 31 32
2 32 33
2 33 34
2 34 35
2 35 36
2 36 37
2 37 38
2 38 39
2 39 40
2 40 2

CELL_TYPES 40
3
3
3
3
3
3
3
3
3
3
3
3
3
3
3
3
3
3
3
3
3
3
3
3
3
3
3
3
3
3
3
3
3
3
3
3
3
3
3
3

POINT_DATA 41
SCALARS CellEntityIds float 1
LOOKUP_TABLE default
0.0
0.00017645487929356232
0.0
4.785715142055433e-05
0.00017914768875891231
0.0003797486067115248
0.0006347856701113123
0.0009293820859200112
0.001248661107407179
0.0015777464185265553
0.0019017623913919637
0.002205834423223718
0.0024750894589054976
0.0026946568567311974
0.0028496699025292553
0.0029252686238739754
0.0029066054262659497
0.002778857515316227
0.002527258025238122
0.0021371896925595265
0.0015945610713704167
0.0008884486393772768
0.0012515855062565824
0.0024288078019131794
0.003619967316199037
0.004750185003592792
0.005756625924258961
0.006588463457584184
0.0072068734663824335
0.007585032759148874
0.007708118565019143
0.0075733083218126095
0.00718977957967682
0.0065787099531831525
0.005773277095787221
0.004818658685420919
0.003772032415975909
0.002702575992067807
0.00169146712570729
0.0008318835341206268
0.00022900293827858285
