# vtk DataFile Version 2.0
mesh vtk view
ASCII
DATASET UNSTRUCTURED_GRID
POINTS 41 double
0.0 0.0 0.0
0.0031098281867722242 19.97809055719672 0.0
20.0 20.0 0.0
-0.005900898984385359 0.998904527858939 0.0
-0.022359664662840634 1.9978090557180517 0.0
-0.04751040012327678 2.9967135835760805 0.0
-0.07948720845361591 3.995618111432999 0.0
-0.116424192741836 4.994522639289918 0.0
-0.1564554560758915 5.9934271671468355 0.0
-0.1977151015437371 6.992331695003753 0.0
-0.23833723223333025 7.991236222860741 0.0
-0.27645595123277117 8.99014075072182 0.0
-0.3102053616298314 9.989045278583175 0.0
-0.3377195665124302 10.987949806444531 0.0
-0.35713266896849666 11.986854334305885 0.0
-0.3665787720859591 12.98575886216724 0.0
-0.3641919789527454 13.984663390028594 0.0
-0.3481063926567831 14.983567917889948 0.0
-0.31645611628600023 15.982472445751302 0.0
-0.267375252928325 16.981376973612655 0.0
-0.19899790567168563 17.98028150147401 0.0
-0.10945817760401047 18.979186029335363 0.0
1.002954336776536 19.8430675993222 0.0
2.002798845366473 19.695418268823673 0.0
3.002643353955326 19.54603086765818 0.0
4.002487862543067 19.404288788632517 0.0
5.002332371130808 19.278070515403236 0.0
6.002176879718549 19.17374962247704 0.0
7.002021388306289 19.09619477521058 0.0
8.0018658968941 19.048769729810477 0.0
9.001710405486005 19.033333333333335 0.0
10.001554914078186 19.05023952368597 0.0
11.001399422670369 19.09833732962489 0.0
12.001243931262552 19.174970870756532 0.0
13.001088439854732 19.27597935753727 0.0
14.000932948446913 19.39569709127342 0.0
15.000777457039096 19.526953464121238 0.0
16.000621965631275 19.661072959086916 0.0
17.000466474223455 19.78787515002659 0.0
18.000310982815638 19.895674701646332 0.0
19.000155491407817 19.97128136950215 0.0

CELLS 40 120
2 0 3
2 3 4
2 4 5
2 5 6
2 6 7
2 7 8
2 8 9
2 9 10
2 10 11
2 11 12
2 12 13
2 13 14
2 14 15
2 15 16
2 16 17
2 17 18
2 18 19
2 19 20
2 20 21
2 21 1
2 1 22
2 22 23
2 23 24
2 24 25
2 25 26
2 26 27
2 27 28
2 28 29
2 29 30
2 30 31
2 31 32
2 32 33
2 33 34
2 34 35
2 35 36
2 36 37
2 37 38
2 38 39
2 39 40
2 40 2

CELL_TYPES 40
3
3
3
3
3
3
3
3
3
3
3
3
3
3
3
3
3
3
3
3
3
3
3
3
3
3
3
3
3
3
3
3
3
3
3
3
3
3
3
3

POINT_DATA 41
SCALARS CellEntityIds float 1
LOOKUP_TABLE default
0.0
0.00017645487929356232
0.0
4.785715142055433e-05
0.00017914768875891231
0.0003797486067115248
0.0006347856701113123
0.0009293820859200112
0.001248661107407179
0.0015777464185265553
0.0019017623913919637
0.002205834423223718
0.0024750894589054976
0.0026946568567311974
0.0028496699025292553
0.0029252686238739754
0.0029066054262659497
0.002778857515316227
0.002527258025238122
0.0021371896925595265
0.0015945610713704167
0.0008884486393772768
0.0012515855062565824
0.0024288078019131794
0.003619967316199037
0.004750185003592792
0.005756625924258961
0.006588463457584184
0.0072068734663824335
0.007585032759148874
0.007708118565019143
0.0075733083218126095
0.00718977957967682
0.0065787099531831525
0.005773277095787221
0.004818658685420919
0.003772032415975909
0.002702575992067807
0.00169146712570729
0.0008318835341206268
0.00022900293827858285
