# vtk DataFile Version 2.0
mesh vtk view
ASCII
DATASET UNSTRUCTURED_GRID
POINTS 41 double
0.0 0.0 0.0
0.0 20.0 0.0
20.0 20.0 0.0
0.0 0.999999999999102 0.0
0.0 1.999999999998378 0.0
0.0 2.999999999996569 0.0
0.0 3.999999999993648 0.0
0.0 4.999999999990727 0.0
0.0 5.999999999987806 0.0
0.0 6.999999999984885 0.0
0.0 7.999999999982034 0.0
0.0 8.999999999983277 0.0
0.0 9.999999999984798 0.0
0.0 10.99999999998632 0.0
0.0 11.99999999998784 0.0
0.0 12.99999999998936 0.0
0.0 13.99999999999088 0.0
0.0 14.9999999999924 0.0
0.0 15.99999999999392 0.0
0.0 16.99999999999544 0.0
0.0 17.99999999999696 0.0
0.0 18.99999999999848 0.0
0.999999999999102 20.0 0.0
1.999999999998378 20.0 0.0
2.999999999996569 20.0 0.0
3.999999999993648 20.0 0.0
4.999999999990727 20.0 0.0
5.999999999987806 20.0 0.0
6.999999999984885 20.0 0.0
7.999999999982034 20.0 0.0
8.999999999983277 20.0 0.0
9.999999999984798 20.0 0.0
10.99999999998632 20.0 0.0
11.99999999998784 20.0 0.0
12.99999999998936 20.0 0.0
13.99999999999088 20.0 0.0
14.9999999999924 20.0 0.0
15.99999999999392 20.0 0.0
16.99999999999544 20.0 0.0
17.99999999999696 20.0 0.0
18.99999999999848 20.0 0.0

CELLS 40 120
2 0 3
2 3 4
2 4 5
2 5 6
2 6 7
2 7 8
2 8 9
2 9 10
2 10 11
2 11 12
2 12 13
2 13 14
2 14 15
2 15 16
2 16 17
2 17 18
2 18 19
2 19 20
2 20 21
2 21 1
2 1 22
2 22 23
2 23 24
2 24 25
2 25 26
2 26 27
2 27 28
2 28 29
2 29 30
2 30 31
2 31 32
2 32 33
2 33 34
2 34 35
2 35 36
2 36 37
2 37 38
2 38 39
2 39 40
2 40 2

CELL_TYPES 40
3
3
3
3
3
3
3
3
3
3
3
3
3
3
3
3
3
3
3
3
3
3
3
3
3
3
3
3
3
3
3
3
3
3
3
3
3
3
3
3

CELL_DATA 40
SCALARS CellEntityIds float 1
LOOKUP_TABLE default
1.0
1.0
1.0
1.0
1.0
1.0
1.0
1.0
1.0
1.0
1.0
1.0
1.0
1.0
1.0
1.0
1.0
1.0
1.0
1.0
2.0
2.0
2.0
2.0
2.0
2.0
2.0
2.0
2.0
2.0
2.0
2.0
2.0
2.0
2.0
2.0
2.0
2.0
2.0
2.0
