# vtk DataFile Version 2.0
mesh vtk view
ASCII
DATASET UNSTRUCTURED_GRID
POINTS 41 double
0.0 0.0 0.0
0.0032170636414885078 19.97733505916902 0.0
20.0 20.0 0.0
-0.006104378259708992 0.9988667529575541 0.0
-0.02313068758224893 1.9977335059152819 0.0
-0.049148689782700115 2.996600258871926 0.0
-0.0822281466761544 3.9954670118274596 0.0
-0.12043882007776138 4.994333764782993 0.0
-0.1618504718026464 5.993200517738526 0.0
-0.20453286366593493 6.992067270694059 0.0
-0.24655575748275543 7.990934023649662 0.0
-0.285988915068384 8.989800776609355 0.0
-0.32090209823775667 9.988667529569325 0.0
-0.34936506880596224 10.987534282529296 0.0
-0.3694475885881 11.986401035489267 0.0
-0.37921941939926807 12.985267788449235 0.0
-0.3767503230545642 13.984134541409205 0.0
-0.36011006136908597 14.983001294369174 0.0
-0.3273683961579313 15.981868047329142 0.0
-0.27659508923619824 16.98073480028911 0.0
-0.20585990241898514 17.97960155324908 0.0
-0.11323259752139014 18.97846830620905 0.0
1.0030562104585163 19.837656137229864 0.0
2.002895357275718 19.684915450507248 0.0
3.0027345040918347 19.530376759646394 0.0
4.00257365090684 19.38374702272329 0.0
5.0024127977218455 19.25317639524473 0.0
6.00225194453685 19.145258230148663 0.0
7.002091091351855 19.06502907780405 0.0
8.00193023816693 19.01596868601084 0.0
9.0017693849861 19.0 0.0
10.001608531805545 19.017489162433762 0.0
11.001447678624992 19.06724551340506 0.0
12.001286825444438 19.14652159043779 0.0
13.001125972263882 19.25101312848683 0.0
14.000965119083329 19.37485905993802 0.0
15.000804265902774 19.510641514608178 0.0
16.00064341272222 19.64938581974509 0.0
17.000482559541663 19.78056050002751 0.0
18.00032170636111 19.89207727756517 0.0
19.000160853180553 19.970291071898775 0.0

CELLS 40 120
2 0 3
2 3 4
2 4 5
2 5 6
2 6 7
2 7 8
2 8 9
2 9 10
2 10 11
2 11 12
2 12 13
2 13 14
2 14 15
2 15 16
2 16 17
2 17 18
2 18 19
2 19 20
2 20 21
2 21 1
2 1 22
2 22 23
2 23 24
2 24 25
2 25 26
2 26 27
2 27 28
2 28 29
2 29 30
2 30 31
2 31 32
2 32 33
2 33 34
2 34 35
2 35 36
2 36 37
2 37 38
2 38 39
2 39 40
2 40 2

CELL_TYPES 40
3
3
3
3
3
3
3
3
3
3
3
3
3
3
3
3
3
3
3
3
3
3
3
3
3
3
3
3
3
3
3
3
3
3
3
3
3
3
3
3

POINT_DATA 41
SCALARS CellEntityIds float 1
LOOKUP_TABLE default
0.0
0.00017645487929356232
0.0
4.785715142055433e-05
0.00017914768875891231
0.0003797486067115248
0.0006347856701113123
0.0009293820859200112
0.001248661107407179
0.0015777464185265553
0.0019017623913919637
0.002205834423223718
0.0024750894589054976
0.0026946568567311974
0.0028496699025292553
0.0029252686238739754
0.0029066054262659497
0.002778857515316227
0.002527258025238122
0.0021371896925595265
0.0015945610713704167
0.0008884486393772768
0.0012515855062565824
0.0024288078019131794
0.003619967316199037
0.004750185003592792
0.005756625924258961
0.006588463457584184
0.0072068734663824335
0.007585032759148874
0.007708118565019143
0.0075733083218126095
0.00718977957967682
0.0065787099531831525
0.005773277095787221
0.004818658685420919
0.003772032415975909
0.002702575992067807
0.00169146712570729
0.0008318835341206268
0.00022900293827858285
