# vtk DataFile Version 2.0
mesh vtk view
ASCII
DATASET UNSTRUCTURED_GRID
POINTS 41 double
0.0 0.0 0.0
0.002573650913190807 19.981868047335215 0.0
20.0 20.0 0.0
-0.004883502607767195 0.9990934023658636 0.0
-0.01850455006579915 1.9981868047319011 0.0
-0.0393189518261601 2.9972802070968547 0.0
-0.06578251734092354 3.996373609460697 0.0
-0.09635105606220913 4.99546701182454 0.0
-0.12948037744211716 5.994560414188382 0.0
-0.16362629093274797 6.993653816552224 0.0
-0.19724460598620439 7.992747218916136 0.0
-0.22879113205470722 8.99184062128414 0.0
-0.2567216785902054 9.99093402365242 0.0
-0.27949205504476987 10.990027426020701 0.0
-0.29555807087048 11.989120828388982 0.0
-0.30337553551941454 12.98821423075726 0.0
-0.3014002584436514 13.987307633125539 0.0
-0.28808804909526886 14.98640103549382 0.0
-0.2618947169263451 15.985494437862098 0.0
-0.22127607138895866 16.984587840230375 0.0
-0.16468792193518814 17.983681242598657 0.0
-0.09058607801711213 18.982774644966938 0.0
1.0024449683666334 19.87012490978389 0.0
2.0023162858202497 19.747932360405798 0.0
3.0021876032727817 19.624301407717116 0.0
4.002058920724202 19.506997618178634 0.0
5.001930238175622 19.40254111619578 0.0
6.001801555627042 19.31620658411893 0.0
7.001672873078461 19.252023262243238 0.0
8.00154419052995 19.212774948808672 0.0
9.001415507985534 19.2 0.0
10.001286825441396 19.21399132994701 0.0
11.001158142897259 19.253796410724046 0.0
12.001029460353118 19.31721727235023 0.0
13.000900777808978 19.400810502789465 0.0
14.00077209526484 19.499887247950415 0.0
15.000643412720699 19.608513211686542 0.0
16.00051473017656 19.71950865579607 0.0
17.000386047632418 19.824448400022007 0.0
18.000257365088277 19.913661822052134 0.0
19.00012868254414 19.976232857519022 0.0

CELLS 40 120
2 0 3
2 3 4
2 4 5
2 5 6
2 6 7
2 7 8
2 8 9
2 9 10
2 10 11
2 11 12
2 12 13
2 13 14
2 14 15
2 15 16
2 16 17
2 17 18
2 18 19
2 19 20
2 20 21
2 21 1
2 1 22
2 22 23
2 23 24
2 24 25
2 25 26
2 26 27
2 27 28
2 28 29
2 29 30
2 30 31
2 31 32
2 32 33
2 33 34
2 34 35
2 35 36
2 36 37
2 37 38
2 38 39
2 39 40
2 40 2

CELL_TYPES 40
3
3
3
3
3
3
3
3
3
3
3
3
3
3
3
3
3
3
3
3
3
3
3
3
3
3
3
3
3
3
3
3
3
3
3
3
3
3
3
3

POINT_DATA 41
SCALARS CellEntityIds float 1
LOOKUP_TABLE default
0.0
0.00017645487929356232
0.0
4.785715142055433e-05
0.00017914768875891231
0.0003797486067115248
0.0006347856701113123
0.0009293820859200112
0.001248661107407179
0.0015777464185265553
0.0019017623913919637
0.002205834423223718
0.0024750894589054976
0.0026946568567311974
0.0028496699025292553
0.0029252686238739754
0.0029066054262659497
0.002778857515316227
0.002527258025238122
0.0021371896925595265
0.0015945610713704167
0.0008884486393772768
0.0012515855062565824
0.0024288078019131794
0.003619967316199037
0.004750185003592792
0.005756625924258961
0.006588463457584184
0.0072068734663824335
0.007585032759148874
0.007708118565019143
0.0075733083218126095
0.00718977957967682
0.0065787099531831525
0.005773277095787221
0.004818658685420919
0.003772032415975909
0.002702575992067807
0.00169146712570729
0.0008318835341206268
0.00022900293827858285
