# vtk DataFile Version 2.0
mesh vtk view
ASCII
DATASET UNSTRUCTURED_GRID
POINTS 41 double
0.0 0.0 0.0
0.0026808863679070906 19.981112549307518 0.0
20.0 20.0 0.0
-0.005086981883090828 0.9990556274644787 0.0
-0.019275572985207448 1.998111254929131 0.0
-0.04095724148558344 2.9971668823927 0.0
-0.06852345556346201 3.9962225098551576 0.0
-0.10036568339813451 4.995278137317616 0.0
-0.13487539316887204 5.994333764780073 0.0
-0.1704440530549458 6.9933893922425305 0.0
-0.20546313123562956 7.992445019705058 0.0
-0.23832409589032003 8.991500647171677 0.0
-0.2674184151981306 9.990556274638571 0.0
-0.29113755733830193 10.989611902105468 0.0
-0.3078729904900834 11.988667529572362 0.0
-0.3160161828327235 12.987723157039255 0.0
-0.31395860254547026 13.98677878450615 0.0
-0.3000917178075717 14.985834411973046 0.0
-0.27280699679827614 15.98489003943994 0.0
-0.23049590769683193 16.98394566690683 0.0
-0.17154991868248765 17.983001294373725 0.0
-0.0943604979344918 18.982056921840623 0.0
1.0025468420486139 19.864713447691553 0.0
2.0024127977294945 19.737429542089373 0.0
3.0022787534092905 19.60864729970533 0.0
4.0021447090879745 19.48645585226941 0.0
5.002010664766659 19.377646996037274 0.0
6.001876620445342 19.28771519179055 0.0
7.001742576124027 19.220857564836706 0.0
8.00160853180278 19.17997390500903 0.0
9.001474487485629 19.166666666666668 0.0
10.001340443168754 19.1812409686948 0.0
11.001206398851881 19.222704594504215 0.0
12.001072354535005 19.28876799203149 0.0
13.000938310218128 19.375844273739023 0.0
14.000804265901253 19.479049216615017 0.0
15.000670221584379 19.592201262173482 0.0
16.000536177267502 19.70782151645424 0.0
17.000402132950626 19.817133750022922 0.0
18.00026808863375 19.910064397970974 0.0
19.000134044316876 19.975242559915646 0.0

CELLS 40 120
2 0 3
2 3 4
2 4 5
2 5 6
2 6 7
2 7 8
2 8 9
2 9 10
2 10 11
2 11 12
2 12 13
2 13 14
2 14 15
2 15 16
2 16 17
2 17 18
2 18 19
2 19 20
2 20 21
2 21 1
2 1 22
2 22 23
2 23 24
2 24 25
2 25 26
2 26 27
2 27 28
2 28 29
2 29 30
2 30 31
2 31 32
2 32 33
2 33 34
2 34 35
2 35 36
2 36 37
2 37 38
2 38 39
2 39 40
2 40 2

CELL_TYPES 40
3
3
3
3
3
3
3
3
3
3
3
3
3
3
3
3
3
3
3
3
3
3
3
3
3
3
3
3
3
3
3
3
3
3
3
3
3
3
3
3

POINT_DATA 41
SCALARS CellEntityIds float 1
LOOKUP_TABLE default
0.0
0.00017645487929356232
0.0
4.785715142055433e-05
0.00017914768875891231
0.0003797486067115248
0.0006347856701113123
0.0009293820859200112
0.001248661107407179
0.0015777464185265553
0.0019017623913919637
0.002205834423223718
0.0024750894589054976
0.0026946568567311974
0.0028496699025292553
0.0029252686238739754
0.0029066054262659497
0.002778857515316227
0.002527258025238122
0.0021371896925595265
0.0015945610713704167
0.0008884486393772768
0.0012515855062565824
0.0024288078019131794
0.003619967316199037
0.004750185003592792
0.005756625924258961
0.006588463457584184
0.0072068734663824335
0.007585032759148874
0.007708118565019143
0.0075733083218126095
0.00718977957967682
0.0065787099531831525
0.005773277095787221
0.004818658685420919
0.003772032415975909
0.002702575992067807
0.00169146712570729
0.0008318835341206268
0.00022900293827858285
