# vtk DataFile Version 2.0
mesh vtk view
ASCII
DATASET UNSTRUCTURED_GRID
POINTS 41 double
0.0 0.0 0.0
0.0008578836377302688 19.993956015778405 0.0
20.0 20.0 0.0
-0.0016278342025890645 0.9996978007880226 0.0
-0.006168183355266382 1.999395601576219 0.0
-0.013106317275386697 2.999093402363331 0.0
-0.02192750578030784 3.9987912031493313 0.0
-0.032117018687403034 4.998489003935331 0.0
-0.04316012581403904 5.998186804721332 0.0
-0.054542096977582645 6.997884605507331 0.0
-0.06574820199540145 7.997582406293401 0.0
-0.0762637106849024 8.997280207083564 0.0
-0.08557389286340178 9.996978007874006 0.0
-0.0931640183482566 10.996675808664447 0.0
-0.09851935695682666 11.996373609454889 0.0
-0.10112517850647149 12.996071410245326 0.0
-0.10046675281455046 13.995769211035766 0.0
-0.09602934969842293 14.995467011826207 0.0
-0.08729823897544835 15.995164812616645 0.0
-0.0737586904629862 16.994862613407083 0.0
-0.05489597397839604 17.994560414197526 0.0
-0.030195359339037373 18.994258214987966 0.0
1.0008149894549458 19.956708303261298 0.0
2.0007720952723353 19.9159774534686 0.0
3.0007292010886397 19.874767135905707 0.0
4.000686306903833 19.83566587272621 0.0
5.000643412719025 19.800847038731927 0.0
6.000600518534218 19.772068861372976 0.0
7.00055762434941 19.750674420747746 0.0
8.000514730164673 19.73759164960289 0.0
9.00047183598403 19.733333333333334 0.0
10.000428941803664 19.737997109982338 0.0
11.0003860476233 19.75126547024135 0.0
12.000343153442934 19.772405757450077 0.0
13.000300259262566 19.800270167596487 0.0
14.0002573650822 19.833295749316804 0.0
15.000214470901833 19.869504403895515 0.0
16.000171576721467 19.906502885265358 0.0
17.0001286825411 19.941482800007336 0.0
18.00008578836073 19.971220607350713 0.0
19.000042894180368 19.992077619173006 0.0

CELLS 40 120
2 0 3
2 3 4
2 4 5
2 5 6
2 6 7
2 7 8
2 8 9
2 9 10
2 10 11
2 11 12
2 12 13
2 13 14
2 14 15
2 15 16
2 16 17
2 17 18
2 18 19
2 19 20
2 20 21
2 21 1
2 1 22
2 22 23
2 23 24
2 24 25
2 25 26
2 26 27
2 27 28
2 28 29
2 29 30
2 30 31
2 31 32
2 32 33
2 33 34
2 34 35
2 35 36
2 36 37
2 37 38
2 38 39
2 39 40
2 40 2

CELL_TYPES 40
3
3
3
3
3
3
3
3
3
3
3
3
3
3
3
3
3
3
3
3
3
3
3
3
3
3
3
3
3
3
3
3
3
3
3
3
3
3
3
3

POINT_DATA 41
SCALARS CellEntityIds float 1
LOOKUP_TABLE default
0.0
0.00017645487929356232
0.0
4.785715142055433e-05
0.00017914768875891231
0.0003797486067115248
0.0006347856701113123
0.0009293820859200112
0.001248661107407179
0.0015777464185265553
0.0019017623913919637
0.002205834423223718
0.0024750894589054976
0.0026946568567311974
0.0028496699025292553
0.0029252686238739754
0.0029066054262659497
0.002778857515316227
0.002527258025238122
0.0021371896925595265
0.0015945610713704167
0.0008884486393772768
0.0012515855062565824
0.0024288078019131794
0.003619967316199037
0.004750185003592792
0.005756625924258961
0.006588463457584184
0.0072068734663824335
0.007585032759148874
0.007708118565019143
0.0075733083218126095
0.00718977957967682
0.0065787099531831525
0.005773277095787221
0.004818658685420919
0.003772032415975909
0.002702575992067807
0.00169146712570729
0.0008318835341206268
0.00022900293827858285
