# vtk DataFile Version 2.0
mesh vtk view
ASCII
DATASET UNSTRUCTURED_GRID
POINTS 101 double
-0.0039026603340768904 0.0 0.0
2.0 0.0 0.0
0.0199999999999621 -3.9558708496363875e-05 0.0
0.036097339665872356 -0.00015397817657355556 0.0
0.05251390992134166 -0.00033687527143529665 0.0
0.06924952673520306 -0.00058187315099691 0.0
0.08630372336256378 -0.0008826081800200191 0.0
0.10367562617986742 -0.0012327392083567254 0.0
0.121363842634638 -0.0016259589693193477 0.0
0.1393663612759979 -0.0020560073570598286 0.0
0.1576804638123828 -0.002516686343144141 0.0
0.17630264911937665 -0.0030018762943107608 0.0
0.19522856909378056 -0.0035055534557719777 0.0
0.21445297622035545 -0.004021808367406621 0.0
0.23396968268552298 -0.004544864983845056 0.0
0.25377153083819515 -0.005069100273799974 0.0
0.27385037476215485 -0.005589064079072024 0.0
0.29419707268761336 -0.006099499019482083 0.0
0.3148014899321403 -0.006595360236558706 0.0
0.3356525120231844 -0.007071834776139054 0.0
0.3567380676168431 -0.007524360418122705 0.0
0.378045160790308 -0.007948643770435401 0.0
0.39955991224896487 -0.008340677453792005 0.0
0.4212676089541874 -0.008696756214066594 0.0
0.44315276164419665 -0.00901349180994971 0.0
0.4651991696887474 -0.0092878265350565 0.0
0.48738999268890365 -0.009517045245698415 0.0
0.5097078282061704 -0.009698785778093732 0.0
0.5321347949809353 -0.009831047651811472 0.0
0.554652620978843 -0.009912198969658084 0.0
0.5772427355855414 -0.009940981437961604 0.0
0.5998863652554002 -0.009916513445215354 0.0
0.6225646319084657 -0.009838291151240961 0.0
0.6452586533622168 -0.009706187553345284 0.0
0.6679496450807255 -0.009520449510301541 0.0
0.690619022523678 -0.009281692719305117 0.0
0.7132485033814243 -0.008990894655261622 0.0
0.7358202089898408 -0.008649385495780768 0.0
0.7583167642302641 -0.00825883706899703 0.0
0.7807213952351187 -0.007821249874740942 0.0
0.8030180242389828 -0.00733893824256729 0.0
0.8251913609376957 -0.006814513702635817 0.0
0.84722698974456 -0.006250866657365538 0.0
0.86911145236262 -0.005651146453076845 0.0
0.8908323251252389 -0.005018739961432752 0.0
0.9123782905935728 -0.00435724879032987 0.0
0.933739202938858 -0.0036704652529156753 0.0
0.9549061466794602 -0.0029623472315682495 0.0
0.9758714883871602 -0.0022369920809210365 0.0
0.9966289210239004 -0.0014986097203068252 0.0
1.0171735006189297 -0.0007514950712947321 0.0
1.0375016750467143 -2.704692209139277e-13 0.0
1.0576113047177085 0.0007514950707574489 0.0
1.0775016750469102 0.001498609719777037 0.0
1.0971735006192502 0.0022369920804008116 0.0
1.1166289210243185 0.0029623472310595094 0.0
1.1358714883876717 0.0036704652524202704 0.0
1.1549061466800585 0.0043572487898494655 0.0
1.1737392029395366 0.005018739960968848 0.0
1.1923782905943243 0.005651146452630762 0.0
1.2108323251260538 0.00625086665693837 0.0
1.2291114523634914 0.006814513702228553 0.0
1.2472269897454789 0.00733893824218067 0.0
1.2651913609386525 0.007821249874375519 0.0
1.2830180242399702 0.008258837068653206 0.0
1.3007213952361278 0.008649385495458748 0.0
1.3183167642312863 0.008990894654961413 0.0
1.3358202089908666 0.009281692719026522 0.0
1.3532485033824464 0.00952044951004425 0.0
1.3706190225246884 0.009706187553108815 0.0
1.3879496450817186 0.009838291151024718 0.0
1.4052586533631852 0.009916513445018602 0.0
1.4225646319094052 0.009940981437783533 0.0
1.4398863652563054 0.009912198969497788 0.0
1.45724273558641 0.009831047651668015 0.0
1.4746526209796715 0.009698785777966136 0.0
1.4921347949817232 0.009517045245585663 0.0
1.509707828206915 0.009287826534957555 0.0
1.5273899926896035 0.00901349180986354 0.0
1.5451991696894003 0.008696756213992159 0.0
1.5631527616448042 0.008340677453728258 0.0
1.5812676089547493 0.007948643770381368 0.0
1.5995599122494828 0.007524360418077431 0.0
1.6180451607907809 0.007071834776101633 0.0
1.6367380676172725 0.006595360236528216 0.0
1.6556525120235703 0.006099499019457721 0.0
1.6748014899324892 0.005589064079053035 0.0
1.6941970726879194 0.005069100273785565 0.0
1.713850374762416 0.004544864983834486 0.0
1.7337715308384158 0.004021808367399505 0.0
1.7539696826857056 0.003505553455767977 0.0
1.7744529762205117 0.003001876294309326 0.0
1.7952285690939236 0.002516686343144656 0.0
1.8163026491195091 0.0020560073570617477 0.0
1.837680463812505 0.0016259589693221508 0.0
1.8593663612761104 0.0012327392083598897 0.0
1.8813638426347434 0.000882608180023042 0.0
1.9036756261799639 0.0005818731509994908 0.0
1.9263037233626463 0.0003368752714372614 0.0
1.9492495267352703 0.00015397817657480345 0.0
1.9725139099213977 3.955870849679414e-05 0.0

CELLS 100 300
2 0 2
2 2 3
2 3 4
2 4 5
2 5 6
2 6 7
2 7 8
2 8 9
2 9 10
2 10 11
2 11 12
2 12 13
2 13 14
2 14 15
2 15 16
2 16 17
2 17 18
2 18 19
2 19 20
2 20 21
2 21 22
2 22 23
2 23 24
2 24 25
2 25 26
2 26 27
2 27 28
2 28 29
2 29 30
2 30 31
2 31 32
2 32 33
2 33 34
2 34 35
2 35 36
2 36 37
2 37 38
2 38 39
2 39 40
2 40 41
2 41 42
2 42 43
2 43 44
2 44 45
2 45 46
2 46 47
2 47 48
2 48 49
2 49 50
2 50 51
2 51 52
2 52 53
2 53 54
2 54 55
2 55 56
2 56 57
2 57 58
2 58 59
2 59 60
2 60 61
2 61 62
2 62 63
2 63 64
2 64 65
2 65 66
2 66 67
2 67 68
2 68 69
2 69 70
2 70 71
2 71 72
2 72 73
2 73 74
2 74 75
2 75 76
2 76 77
2 77 78
2 78 79
2 79 80
2 80 81
2 81 82
2 82 83
2 83 84
2 84 85
2 85 86
2 86 87
2 87 88
2 88 89
2 89 90
2 90 91
2 91 92
2 92 93
2 93 94
2 94 95
2 95 96
2 96 97
2 97 98
2 98 99
2 99 100
2 100 1

CELL_TYPES 100
3
3
3
3
3
3
3
3
3
3
3
3
3
3
3
3
3
3
3
3
3
3
3
3
3
3
3
3
3
3
3
3
3
3
3
3
3
3
3
3
3
3
3
3
3
3
3
3
3
3
3
3
3
3
3
3
3
3
3
3
3
3
3
3
3
3
3
3
3
3
3
3
3
3
3
3
3
3
3
3
3
3
3
3
3
3
3
3
3
3
3
3
3
3
3
3
3
3
3
3

POINT_DATA 101
SCALARS MODE2_619.3044_Hz float 1
LOOKUP_TABLE default
0.026678326394251408
0.0
0.00027042069938445454
0.02669908300799135
0.05122620198059031
0.0735970870188794
0.09382103666871622
0.11191006164386384
0.12787948854937414
0.1417486829959544
0.15354173192876894
0.16328807272747556
0.17102307352285254
0.17678857506277895
0.18063340979499545
0.18261392092327147
0.18279451462093704
0.18124829451167088
0.1780578524601362
0.17331632962096333
0.16712892693404371
0.1596151531053246
0.1509122830652464
0.1411808183798074
0.1306132909667855
0.1194486805475529
0.10799616053170648
0.09667354918822064
0.08606517552255694
0.07699038186627889
0.07052139906996296
0.06779307673419194
0.06950141315773865
0.07546310527554023
0.08478647049388952
0.09641173806823972
0.10945160536275443
0.1232537727216953
0.13735162014846516
0.1514044560584662
0.16515386844508056
0.1783958959139839
0.19096401355272147
0.20271881058131203
0.21354169713991591
0.22333103645467836
0.23199975169910905
0.23947384093247262
0.24569145754368366
0.25060234552465505
0.2541674979512153
0.2563589555978693
0.2571596933929035
0.2565635628299333
0.254575272935649
0.25121040379506954
0.24649545700115244
0.2404679585089744
0.23317664320750914
0.22468176974532517
0.2150556428734326
0.20438346558902168
0.1927647163133764
0.18031536755703845
0.16717146778711814
0.15349495947737
0.13948320450629575
0.12538466713938304
0.11152460413667803
0.09834571135527329
0.08646546035876494
0.07673032312148696
0.07018092003459094
0.06776358520223785
0.06979752698318221
0.07570959356789336
0.08439972464774602
0.09476895026187446
0.10595814165819621
0.11735092830459838
0.1285076113813851
0.13910468075092958
0.14889365925404777
0.1576754861769326
0.16528493749393947
0.17158112105141782
0.17644159358225697
0.17975864487126475
0.18143689083567074
0.18139166359647785
0.17954788762880722
0.17583924915807303
0.17020753655746107
0.1626020725539293
0.1529791858672218
0.1413016869830732
0.1275383239097795
0.11166320132918309
0.09365515225077523
0.07349705764894668
0.05117512820321649

