# vtk DataFile Version 2.0
mesh vtk view
ASCII
DATASET UNSTRUCTURED_GRID
POINTS 101 double
-0.010288831789839078 0.0 0.0
2.0 0.0 0.0
0.0199999999999621 -0.00010429114058132296 0.0
0.029711168210150615 -0.0004059424655121011 0.0
0.040263944338269395 -0.0008881257156021459 0.0
0.051657843211246265 -0.0015340292162645812 0.0
0.06389163431981562 -0.002326876110961869 0.0
0.07696301447459503 -0.003249948822031368 0.0
0.09086831240086694 -0.0042866191009328265 0.0
0.10560222518268436 -0.0054203830322486395 0.0
0.12115758641502189 -0.006634900359198191 0.0
0.137525165860783 -0.007914037503182916 0.0
0.1546935003388072 -0.009241913656126125 0.0
0.17264875549073963 -0.01060294933225382 0.0
0.19137461798989064 -0.011981916775591513 0.0
0.2108522176652096 -0.013363991630927207 0.0
0.23106007891938068 -0.014734805299371701 0.0
0.25197410072295784 -0.016080497414998222 0.0
0.27356756436771523 -0.017387767896382047 0.0
0.2958111680623817 -0.018643928046184782 0.0
0.31867308735485 -0.01983695019323259 0.0
0.3421190602668075 -0.020955515394784244 0.0
0.36611249593063494 -0.02198905874181529 0.0
0.390614605426317 -0.022927811837084665 0.0
0.4155845534273461 -0.023762842044412875 0.0
0.44097962918125716 -0.02448608813787623 0.0
0.46675543527267377 -0.025090392011386735 0.0
0.4928660925455638 -0.02556952614224712 0.0
0.5192644594973119 -0.025918216536593888 0.0
0.5459023644009824 -0.02613216092000768 0.0
0.5727308483641916 -0.026208041972807874 0.0
0.599700417493915 -0.026143535446476848 0.0
0.626761302306638 -0.025937313035089813 0.0
0.6538637225029864 -0.025589039913364846 0.0
0.680958155215514 -0.025099366890794977 0.0
0.7079956048379386 -0.024469917169077128 0.0
0.7349278725539108 -0.02370326772750792 0.0
0.761707823703468 -0.022802925397967484 0.0
0.7882896511555886 -0.02177329772735581 0.0
0.8146291328957556 -0.020619658760680667 0.0
0.8406838820878562 -0.01934810991222286 0.0
0.8664135879300132 -0.017965536125130795 0.0
0.8917802456936601 -0.016479557551236423 0.0
0.9167483744140957 -0.014898477012657141 0.0
0.941285220788368 -0.01323122353468635 0.0
0.9653609479322528 -0.011487292265415115 0.0
0.9889488077517367 -0.009676681121323145 0.0
1.012025295795238 -0.007809824519589024 0.0
1.0345702875701792 -0.005897524576973643 0.0
1.0565671554307716 -0.003950880171717994 0.0
1.0780028652723077 -0.0019812142788679303 0.0
1.0988680524001637 -7.130552187730824e-13 0.0
1.119157076078189 0.0019812142774514566 0.0
1.1388680524005426 0.00395088017032128 0.0
1.1580028652729888 0.00589752457560214 0.0
1.1765671554317205 0.007809824518247799 0.0
1.1945702875713826 0.009676681120017077 0.0
1.2120252957966795 0.011487292264148593 0.0
1.2289488077533988 0.013231223533463331 0.0
1.2453609479341157 0.014898477011481101 0.0
1.2612852207904086 0.01647955755011025 0.0
1.2767483744162935 0.0179655361240571 0.0
1.2917802456959924 0.01934810991120359 0.0
1.306413587932456 0.020619658759717278 0.0
1.3206838820903881 0.02177329772644937 0.0
1.3346291328983533 0.022802925397118524 0.0
1.3482896511582303 0.023703267726716454 0.0
1.3617078237061295 0.024469917168342653 0.0
1.3749278725565712 0.025099366890116662 0.0
1.387995604840577 0.02558903991274143 0.0
1.4009581552181156 0.025937313034519714 0.0
1.4138637225055333 0.026143535445958137 0.0
1.426761302309117 0.02620804197233841 0.0
1.439700417496313 0.026132160919585083 0.0
1.4527308483665016 0.025918216536215684 0.0
1.465902364403197 0.025569526141910725 0.0
1.4792644594994284 0.02509039201108948 0.0
1.4928660925475745 0.024486088137615377 0.0
1.506755435274576 0.023762842044185696 0.0
1.5209796291830462 0.022927811836888422 0.0
1.535584553429024 0.02198905874164723 0.0
1.550614605427884 0.020955515394641792 0.0
1.5661124959320942 0.01983695019311323 0.0
1.5821190602681585 0.01864392804608613 0.0
1.5986730873560948 0.017387767896301663 0.0
1.615811168063521 0.016080497414933993 0.0
1.6335675643687662 0.014734805299321642 0.0
1.6519741007239062 0.01336399163088922 0.0
1.6710600789202192 0.011981916775563647 0.0
1.6908522176659504 0.010602949332235061 0.0
1.7113746179905365 0.009241913656115578 0.0
1.7326487554913037 0.007914037503179134 0.0
1.7546935003393032 0.006634900359199549 0.0
1.7775251658612146 0.0054203830322537 0.0
1.80115758641539 0.0042866191009402164 0.0
1.8256022251829913 0.0032499488220397096 0.0
1.8508683124011196 0.0023268761109698386 0.0
1.8769630144747957 0.001534029216271385 0.0
1.9038916343199626 0.0008881257156073256 0.0
1.9316578432113407 0.00040594246551539095 0.0
1.9602639443383174 0.0001042911405824573 0.0

CELLS 100 300
2 0 2
2 2 3
2 3 4
2 4 5
2 5 6
2 6 7
2 7 8
2 8 9
2 9 10
2 10 11
2 11 12
2 12 13
2 13 14
2 14 15
2 15 16
2 16 17
2 17 18
2 18 19
2 19 20
2 20 21
2 21 22
2 22 23
2 23 24
2 24 25
2 25 26
2 26 27
2 27 28
2 28 29
2 29 30
2 30 31
2 31 32
2 32 33
2 33 34
2 34 35
2 35 36
2 36 37
2 37 38
2 38 39
2 39 40
2 40 41
2 41 42
2 42 43
2 43 44
2 44 45
2 45 46
2 46 47
2 47 48
2 48 49
2 49 50
2 50 51
2 51 52
2 52 53
2 53 54
2 54 55
2 55 56
2 56 57
2 57 58
2 58 59
2 59 60
2 60 61
2 61 62
2 62 63
2 63 64
2 64 65
2 65 66
2 66 67
2 67 68
2 68 69
2 69 70
2 70 71
2 71 72
2 72 73
2 73 74
2 74 75
2 75 76
2 76 77
2 77 78
2 78 79
2 79 80
2 80 81
2 81 82
2 82 83
2 83 84
2 84 85
2 85 86
2 86 87
2 87 88
2 88 89
2 89 90
2 90 91
2 91 92
2 92 93
2 93 94
2 94 95
2 95 96
2 96 97
2 97 98
2 98 99
2 99 100
2 100 1

CELL_TYPES 100
3
3
3
3
3
3
3
3
3
3
3
3
3
3
3
3
3
3
3
3
3
3
3
3
3
3
3
3
3
3
3
3
3
3
3
3
3
3
3
3
3
3
3
3
3
3
3
3
3
3
3
3
3
3
3
3
3
3
3
3
3
3
3
3
3
3
3
3
3
3
3
3
3
3
3
3
3
3
3
3
3
3
3
3
3
3
3
3
3
3
3
3
3
3
3
3
3
3
3
3

POINT_DATA 101
SCALARS MODE2_619.3044_Hz float 1
LOOKUP_TABLE default
0.026678326394251408
0.0
0.00027042069938445454
0.02669908300799135
0.05122620198059031
0.0735970870188794
0.09382103666871622
0.11191006164386384
0.12787948854937414
0.1417486829959544
0.15354173192876894
0.16328807272747556
0.17102307352285254
0.17678857506277895
0.18063340979499545
0.18261392092327147
0.18279451462093704
0.18124829451167088
0.1780578524601362
0.17331632962096333
0.16712892693404371
0.1596151531053246
0.1509122830652464
0.1411808183798074
0.1306132909667855
0.1194486805475529
0.10799616053170648
0.09667354918822064
0.08606517552255694
0.07699038186627889
0.07052139906996296
0.06779307673419194
0.06950141315773865
0.07546310527554023
0.08478647049388952
0.09641173806823972
0.10945160536275443
0.1232537727216953
0.13735162014846516
0.1514044560584662
0.16515386844508056
0.1783958959139839
0.19096401355272147
0.20271881058131203
0.21354169713991591
0.22333103645467836
0.23199975169910905
0.23947384093247262
0.24569145754368366
0.25060234552465505
0.2541674979512153
0.2563589555978693
0.2571596933929035
0.2565635628299333
0.254575272935649
0.25121040379506954
0.24649545700115244
0.2404679585089744
0.23317664320750914
0.22468176974532517
0.2150556428734326
0.20438346558902168
0.1927647163133764
0.18031536755703845
0.16717146778711814
0.15349495947737
0.13948320450629575
0.12538466713938304
0.11152460413667803
0.09834571135527329
0.08646546035876494
0.07673032312148696
0.07018092003459094
0.06776358520223785
0.06979752698318221
0.07570959356789336
0.08439972464774602
0.09476895026187446
0.10595814165819621
0.11735092830459838
0.1285076113813851
0.13910468075092958
0.14889365925404777
0.1576754861769326
0.16528493749393947
0.17158112105141782
0.17644159358225697
0.17975864487126475
0.18143689083567074
0.18139166359647785
0.17954788762880722
0.17583924915807303
0.17020753655746107
0.1626020725539293
0.1529791858672218
0.1413016869830732
0.1275383239097795
0.11166320132918309
0.09365515225077523
0.07349705764894668
0.05117512820321649

