# vtk DataFile Version 2.0
mesh vtk view
ASCII
DATASET UNSTRUCTURED_GRID
POINTS 101 double
0.0039026603340768912 0.0 0.0
2.0 0.0 0.0
0.0199999999999621 3.955870849636388e-05 0.0
0.04390266033397671 0.0001539781765735556 0.0
0.06748609007842998 0.0003368752714352967 0.0
0.09075047326448356 0.0005818731509969101 0.0
0.11369627663703377 0.0008826081800200192 0.0
0.13632437381964477 0.0012327392083567256 0.0
0.1586361573648026 0.001625958969319348 0.0
0.18063363872338112 0.0020560073570598286 0.0
0.20231953618693502 0.0025166863431441413 0.0
0.22369735087988 0.003001876294310761 0.0
0.24477143090541464 0.003505553455771978 0.0
0.26554702377877476 0.004021808367406622 0.0
0.286030317313518 0.004544864983845057 0.0
0.3062284691607331 0.005069100273799975 0.0
0.3261496252366565 0.0055890640790720245 0.0
0.34580292731108125 0.006099499019482084 0.0
0.36519851006643766 0.006595360236558707 0.0
0.38434748797527657 0.007071834776139056 0.0
0.4032619323815013 0.007524360418122706 0.0
0.4219548392079196 0.007948643770435403 0.0
0.44044008774914595 0.008340677453792007 0.0
0.45873239104380675 0.008696756214066596 0.0
0.47684723835368054 0.00901349180994971 0.0
0.49480083030901323 0.009287826535056502 0.0
0.5126100073087402 0.009517045245698416 0.0
0.5302921717913565 0.009698785778093735 0.0
0.5478652050164748 0.009831047651811474 0.0
0.5653473790184506 0.009912198969658085 0.0
0.5827572644116354 0.009940981437961608 0.0
0.6001136347416597 0.009916513445215356 0.0
0.6174353680884774 0.009838291151240963 0.0
0.6347413466346096 0.009706187553345288 0.0
0.6520503549159843 0.009520449510301543 0.0
0.669380977472915 0.009281692719305118 0.0
0.6867514966150517 0.008990894655261624 0.0
0.7041797910065185 0.00864938549578077 0.0
0.7216832357659785 0.008258837068997032 0.0
0.7392786047610073 0.007821249874740943 0.0
0.7569819757570264 0.0073389382425672915 0.0
0.7748086390581965 0.006814513702635819 0.0
0.7927730102512155 0.0062508666573655395 0.0
0.8108885476330387 0.005651146453076847 0.0
0.8291676748703033 0.005018739961432753 0.0
0.8476217094018527 0.004357248790329871 0.0
0.8662607970564506 0.0036704652529156757 0.0
0.8850938533157315 0.0029623472315682504 0.0
0.9041285116079147 0.002236992080921037 0.0
0.923371078971058 0.0014986097203068254 0.0
0.942826499375912 0.0007514950712947322 0.0
0.9624983249480541 2.7046922091392777e-13 0.0
0.9823886952771214 -0.000751495070757449 0.0
1.002498324948026 -0.0014986097197770374 0.0
1.0228264993757916 -0.002236992080400812 0.0
1.0433710789708273 -0.00296234723105951 0.0
1.0641285116075803 -0.003670465252420271 0.0
1.0850938533152996 -0.004357248789849466 0.0
1.1062607970559273 -0.005018739960968849 0.0
1.1276217094012457 -0.005651146452630763 0.0
1.1491676748696202 -0.006250866656938371 0.0
1.1708885476322888 -0.006814513702228554 0.0
1.192773010250407 -0.007338938242180672 0.0
1.2148086390573374 -0.007821249874375519 0.0
1.2369819757561258 -0.008258837068653208 0.0
1.2592786047600744 -0.00864938549545875 0.0
1.2816832357650216 -0.008990894654961414 0.0
1.3041797910055453 -0.009281692719026523 0.0
1.3267514966140717 -0.009520449510044252 0.0
1.3493809774719354 -0.009706187553108819 0.0
1.3720503549150114 -0.00983829115102472 0.0
1.3947413466336487 -0.009916513445018604 0.0
1.417435368087535 -0.009940981437783535 0.0
1.4401136347407404 -0.00991219896949779 0.0
1.462757264410742 -0.009831047651668017 0.0
1.4853473790175846 -0.009698785777966137 0.0
1.507865205015639 -0.009517045245585665 0.0
1.5302921717905529 -0.009287826534957556 0.0
1.5526100073079705 -0.009013491809863541 0.0
1.5748008303082777 -0.00869675621399216 0.0
1.59684723835298 -0.00834067745372826 0.0
1.6187323910431406 -0.00794864377038137 0.0
1.6404400877485132 -0.007524360418077432 0.0
1.6619548392073191 -0.007071834776101635 0.0
1.6832619323809337 -0.006595360236528217 0.0
1.7043474879747416 -0.0060994990194577214 0.0
1.7251985100659288 -0.005589064079053037 0.0
1.7458029273106026 -0.005069100273785566 0.0
1.766149625236212 -0.004544864983834487 0.0
1.786228469160318 -0.004021808367399506 0.0
1.8060303173131345 -0.0035055534557679774 0.0
1.8255470237784324 -0.0030018762943093266 0.0
1.8447714309051266 -0.0025166863431446565 0.0
1.8636973508796468 -0.002056007357061748 0.0
1.882319536186757 -0.001625958969322151 0.0
1.9006336387232556 -0.00123273920835989 0.0
1.9186361573647284 -0.0008826081800230422 0.0
1.936324373819614 -0.0005818731509994909 0.0
1.9536962766370378 -0.00033687527143726144 0.0
1.9707504732645178 -0.00015397817657480348 0.0
1.987486090078496 -3.955870849679415e-05 0.0

CELLS 100 300
2 0 2
2 2 3
2 3 4
2 4 5
2 5 6
2 6 7
2 7 8
2 8 9
2 9 10
2 10 11
2 11 12
2 12 13
2 13 14
2 14 15
2 15 16
2 16 17
2 17 18
2 18 19
2 19 20
2 20 21
2 21 22
2 22 23
2 23 24
2 24 25
2 25 26
2 26 27
2 27 28
2 28 29
2 29 30
2 30 31
2 31 32
2 32 33
2 33 34
2 34 35
2 35 36
2 36 37
2 37 38
2 38 39
2 39 40
2 40 41
2 41 42
2 42 43
2 43 44
2 44 45
2 45 46
2 46 47
2 47 48
2 48 49
2 49 50
2 50 51
2 51 52
2 52 53
2 53 54
2 54 55
2 55 56
2 56 57
2 57 58
2 58 59
2 59 60
2 60 61
2 61 62
2 62 63
2 63 64
2 64 65
2 65 66
2 66 67
2 67 68
2 68 69
2 69 70
2 70 71
2 71 72
2 72 73
2 73 74
2 74 75
2 75 76
2 76 77
2 77 78
2 78 79
2 79 80
2 80 81
2 81 82
2 82 83
2 83 84
2 84 85
2 85 86
2 86 87
2 87 88
2 88 89
2 89 90
2 90 91
2 91 92
2 92 93
2 93 94
2 94 95
2 95 96
2 96 97
2 97 98
2 98 99
2 99 100
2 100 1

CELL_TYPES 100
3
3
3
3
3
3
3
3
3
3
3
3
3
3
3
3
3
3
3
3
3
3
3
3
3
3
3
3
3
3
3
3
3
3
3
3
3
3
3
3
3
3
3
3
3
3
3
3
3
3
3
3
3
3
3
3
3
3
3
3
3
3
3
3
3
3
3
3
3
3
3
3
3
3
3
3
3
3
3
3
3
3
3
3
3
3
3
3
3
3
3
3
3
3
3
3
3
3
3
3

POINT_DATA 101
SCALARS MODE2_619.3044_Hz float 1
LOOKUP_TABLE default
0.026678326394251408
0.0
0.00027042069938445454
0.02669908300799135
0.05122620198059031
0.0735970870188794
0.09382103666871622
0.11191006164386384
0.12787948854937414
0.1417486829959544
0.15354173192876894
0.16328807272747556
0.17102307352285254
0.17678857506277895
0.18063340979499545
0.18261392092327147
0.18279451462093704
0.18124829451167088
0.1780578524601362
0.17331632962096333
0.16712892693404371
0.1596151531053246
0.1509122830652464
0.1411808183798074
0.1306132909667855
0.1194486805475529
0.10799616053170648
0.09667354918822064
0.08606517552255694
0.07699038186627889
0.07052139906996296
0.06779307673419194
0.06950141315773865
0.07546310527554023
0.08478647049388952
0.09641173806823972
0.10945160536275443
0.1232537727216953
0.13735162014846516
0.1514044560584662
0.16515386844508056
0.1783958959139839
0.19096401355272147
0.20271881058131203
0.21354169713991591
0.22333103645467836
0.23199975169910905
0.23947384093247262
0.24569145754368366
0.25060234552465505
0.2541674979512153
0.2563589555978693
0.2571596933929035
0.2565635628299333
0.254575272935649
0.25121040379506954
0.24649545700115244
0.2404679585089744
0.23317664320750914
0.22468176974532517
0.2150556428734326
0.20438346558902168
0.1927647163133764
0.18031536755703845
0.16717146778711814
0.15349495947737
0.13948320450629575
0.12538466713938304
0.11152460413667803
0.09834571135527329
0.08646546035876494
0.07673032312148696
0.07018092003459094
0.06776358520223785
0.06979752698318221
0.07570959356789336
0.08439972464774602
0.09476895026187446
0.10595814165819621
0.11735092830459838
0.1285076113813851
0.13910468075092958
0.14889365925404777
0.1576754861769326
0.16528493749393947
0.17158112105141782
0.17644159358225697
0.17975864487126475
0.18143689083567074
0.18139166359647785
0.17954788762880722
0.17583924915807303
0.17020753655746107
0.1626020725539293
0.1529791858672218
0.1413016869830732
0.1275383239097795
0.11166320132918309
0.09365515225077523
0.07349705764894668
0.05117512820321649

