# vtk DataFile Version 2.0
mesh vtk view
ASCII
DATASET UNSTRUCTURED_GRID
POINTS 101 double
0.0015134102241538855 0.0 0.0
2.0 0.0 0.0
0.0199999999999621 -1.525411095695184e-05 0.0
0.038486589775886995 -6.005638342559896e-05 0.0
0.05704518313023521 -0.00013296682143304825 0.0
0.07567577063858213 -0.00023254575307678612 0.0
0.09437832814581709 -0.0003573541942870287 0.0
0.11315280991134287 -0.0005059543460824096 0.0
0.13199914211450772 -0.0006769102181164616 0.0
0.1509172167200346 -0.0008687883713182391 0.0
0.16990688570309068 -0.0010801587724398212 0.0
0.18896795563344337 -0.0013095957533361174 0.0
0.20810018261794033 -0.0015556790678193635 0.0
0.22730326760036154 -0.0018169950389529063 0.0
0.2465768520174042 -0.002092137789675946 0.0
0.2659205138093318 -0.0023797105496843373 0.0
0.28533376378344827 -0.002678327031530606 0.0
0.304816042328278 -0.0029866128689525714 0.0
0.3243667164760526 -0.0033032071104930755 0.0
0.34398507731065303 -0.0036267637615322343 0.0
0.3636703377178558 -0.003955953367921004 0.0
0.383421630474327 -0.004289464634479832 0.0
0.40323800667142884 -0.004626006071709013 0.0
0.4231184344694881 -0.004964307664148217 0.0
0.44306179817778063 -0.005303122553921887 0.0
0.4630668976550664 -0.005641228733114668 0.0
0.4831324480250854 -0.005977430738736915 0.0
0.5032570797010141 -0.006310561344164845 0.0
0.5234393387124425 -0.006639483241072621 0.0
0.5436776873280229 -0.00696309070601506 0.0
0.5639705049665087 -0.007280311245969444 0.0
0.5843160893884922 -0.0075901072173028975 0.0
0.604712658160723 -0.007891477412798196 0.0
0.6251583503844907 -0.008183458611545276 0.0
0.6456512286791536 -0.008465127086688052 0.0
0.6661892814114956 -0.00873560006620623 0.0
0.6867704251612192 -0.00899403714210956 0.0
0.7073925074125066 -0.009239641623626782 0.0
0.7280533094612174 -0.00947166183018365 0.0
0.7487505495269575 -0.00968939232018325 0.0
0.7694818860589117 -0.009892175051826801 0.0
0.7902449212240237 -0.010079400472444917 0.0
0.8110372045658021 -0.010250508533046212 0.0
0.8318562368217534 -0.010404989625032949 0.0
0.8526994738871813 -0.010542385436281025 0.0
0.8735643309128444 -0.010662289724034242 0.0
0.8944481865237408 -0.010764349002319182 0.0
0.9153483871460816 -0.010848263141847924 0.0
0.9362622514293397 -0.010913785880639515 0.0
0.9571870747500946 -0.010960725243858431 0.0
0.9781201337842474 -0.010988943871637553 0.0
0.9990586911341037 -0.010998359253925123 0.0
1.0199999999966505 -0.010988943871668039 0.0
1.040941308859227 -0.010960725243919018 0.0
1.0618798662091922 -0.01091378588072962 0.0
1.0828129252434842 -0.010848263141966753 0.0
1.1037377485643898 -0.010764349002465748 0.0
1.1246516128478081 -0.010662289724207394 0.0
1.1455518134703166 -0.010542385436479448 0.0
1.1664356690813888 -0.010404989625255183 0.0
1.1873005261072351 -0.010250508533290651 0.0
1.2081437631728538 -0.010079400472709806 0.0
1.2289627954290012 -0.009892175052110298 0.0
1.2497550787709801 -0.009689392320483442 0.0
1.270518113936298 -0.009471661830498522 0.0
1.2912494504684615 -0.009239641623954258 0.0
1.3119466905344133 -0.008994037142447533 0.0
1.3326074925833373 -0.008735600066552562 0.0
1.3532295748348406 -0.008465127087040567 0.0
1.3738107185847805 -0.008183458611901838 0.0
1.3943487713173375 -0.007891477413156683 0.0
1.4148416496122127 -0.007590107217661248 0.0
1.435287341836192 -0.007280311246325622 0.0
1.4556839106086308 -0.006963090706367132 0.0
1.4760294950308184 -0.006639483241418759 0.0
1.4963223126695018 -0.006310561344503341 0.0
1.5165606612852753 -0.005977430739066142 0.0
1.5367429202968914 -0.005641228733433146 0.0
1.5568675519730022 -0.005303122554228252 0.0
1.576933102343196 -0.004964307664441263 0.0
1.5969382018206506 -0.004626006071987646 0.0
1.616881565529105 -0.004289464634743129 0.0
1.6367619933273185 -0.003955953368168193 0.0
1.6565783695245666 -0.003626763761762717 0.0
1.676329662281178 -0.003303207110706355 0.0
1.6960149226885135 -0.002986612869148323 0.0
1.7156332835232408 -0.002678327031708632 0.0
1.7351839576711345 -0.00237971054984461 0.0
1.7546662362160765 -0.0020921377898186176 0.0
1.7740794861902958 -0.0018169950390784504 0.0
1.7934231479823173 -0.0015556790679283803 0.0
1.8126967323994343 -0.0013095957534292166 0.0
1.8318998173819125 -0.0010801587725177053 0.0
1.851032044366457 -0.0008687883713817848 0.0
1.8700931142968495 -0.0006769102181666964 0.0
1.8890827832799368 -0.0005059543461204947 0.0
1.9080008578854881 -0.0003573541943142786 0.0
1.9268471900886737 -0.00023254575309474844 0.0
1.9456216718542187 -0.00013296682144346998 0.0
1.9643242293614653 -6.005638343039999e-05 0.0
1.982954816869815 -1.5254110958198618e-05 0.0

CELLS 100 300
2 0 2
2 2 3
2 3 4
2 4 5
2 5 6
2 6 7
2 7 8
2 8 9
2 9 10
2 10 11
2 11 12
2 12 13
2 13 14
2 14 15
2 15 16
2 16 17
2 17 18
2 18 19
2 19 20
2 20 21
2 21 22
2 22 23
2 23 24
2 24 25
2 25 26
2 26 27
2 27 28
2 28 29
2 29 30
2 30 31
2 31 32
2 32 33
2 33 34
2 34 35
2 35 36
2 36 37
2 37 38
2 38 39
2 39 40
2 40 41
2 41 42
2 42 43
2 43 44
2 44 45
2 45 46
2 46 47
2 47 48
2 48 49
2 49 50
2 50 51
2 51 52
2 52 53
2 53 54
2 54 55
2 55 56
2 56 57
2 57 58
2 58 59
2 59 60
2 60 61
2 61 62
2 62 63
2 63 64
2 64 65
2 65 66
2 66 67
2 67 68
2 68 69
2 69 70
2 70 71
2 71 72
2 72 73
2 73 74
2 74 75
2 75 76
2 76 77
2 77 78
2 78 79
2 79 80
2 80 81
2 81 82
2 82 83
2 83 84
2 84 85
2 85 86
2 86 87
2 87 88
2 88 89
2 89 90
2 90 91
2 91 92
2 92 93
2 93 94
2 94 95
2 95 96
2 96 97
2 97 98
2 98 99
2 99 100
2 100 1

CELL_TYPES 100
3
3
3
3
3
3
3
3
3
3
3
3
3
3
3
3
3
3
3
3
3
3
3
3
3
3
3
3
3
3
3
3
3
3
3
3
3
3
3
3
3
3
3
3
3
3
3
3
3
3
3
3
3
3
3
3
3
3
3
3
3
3
3
3
3
3
3
3
3
3
3
3
3
3
3
3
3
3
3
3
3
3
3
3
3
3
3
3
3
3
3
3
3
3
3
3
3
3
3
3

POINT_DATA 101
SCALARS MODE1_224.6674_Hz float 1
LOOKUP_TABLE default
0.009839986425673712
0.0
9.918014452165108e-05
0.00984773101890709
0.01923125756804173
0.028156174108346914
0.036625115811995256
0.04464086832169539
0.05220633260855651
0.05932455773785581
0.06599878065282873
0.07223246627140016
0.0780293466223999
0.08339345874816122
0.08832918136440242
0.09284127036454158
0.09693489330653715
0.1006156630591818
0.10388967082203092
0.10676351877379099
0.10924435264962322
0.11133989460088553
0.1130584767524032
0.11440907594405157
0.11540135022666352
0.11604567777848329
0.11635319901867187
0.11633586281913459
0.11600647785461882
0.11537877028068445
0.11446744908359988
0.11328828059331027
0.11185817376935527
0.1101952779246214
0.10831909448671845
0.10625060412339346
0.1040124099434102
0.10162889633141109
0.09912640100617362
0.09653339472872684
0.09388065825194664
0.09120143905313052
0.08853156063396117
0.08590944452592014
0.08337599020785517
0.08097424305393883
0.07874876974297165
0.07674466192433452
0.07500611259531875
0.07357456543914777
0.07248652832715774
0.07177125602346124
0.07144861109297548
0.0715274591665484
0.07200490559309085
0.07286653094130159
0.07408757674419197
0.07563484445809539
0.07746896438320575
0.0795466895133747
0.0818229486118914
0.08425250682316024
0.08679118850547873
0.0893966923627198
0.09202906909452234
0.09465094384422923
0.09722756034503739
0.09972671012242305
0.10211859462184507
0.10437565403648759
0.10647238523385957
0.10838516268797674
0.1100920703434043
0.1115727483279259
0.11280825586717523
0.11378095020178221
0.11447438043331021
0.1148731947905329
0.11496305964658836
0.11473058861955117
0.11416328018151412
0.11324946233889537
0.1119782431011355
0.11033946561003322
0.10832366694849166
0.10592203978109783
0.10312639609800055
0.09992913243800174
0.0963231960575093
0.09230205159027531
0.0878596478101663
0.08299038416712497
0.07768907681659518
0.0719509239068133
0.0657714699290416
0.05914656897777683
0.0520723468227977
0.04454516179784064
0.036561564791962646
0.028118259694848737
0.019212071430569036

