# vtk DataFile Version 2.0
mesh vtk view
ASCII
DATASET UNSTRUCTURED_GRID
POINTS 101 double
-0.007450533365055884 0.0 0.0
2.0 0.0 0.0
0.0199999999999621 -7.55211707657856e-05 0.0
0.032549466634915834 -0.00029395833709496976 0.0
0.04570837348630151 -0.0006431255181946574 0.0
0.05947636922189373 -0.001110848742812283 0.0
0.07385256278325925 -0.0016849792527654913 0.0
0.08883528634360498 -0.002353411215953749 0.0
0.10442188139365408 -0.0031041034868823916 0.0
0.12060850789082371 -0.003925104954386946 0.0
0.13738997636940453 -0.004804583018729725 0.0
0.15475960286460239 -0.005730854743684181 0.0
0.17270908645212868 -0.006692420233746504 0.0
0.19122840914834666 -0.007677997792321732 0.0
0.21030575785461614 -0.0086765604237042 0.0
0.2299274679643143 -0.009677373249981771 0.0
0.2500779881828359 -0.010670031423682957 0.0
0.27073986604058253 -0.01164449812810216 0.0
0.2918937535074597 -0.012591142269793897 0.0
0.3135184320449607 -0.013500775481720016 0.0
0.33559085636018027 -0.01436468807096153 0.0
0.35808621605502994 -0.015174683561740315 0.0
0.38097801429433714 -0.01592311150269383 0.0
0.404238162549815 -0.01660289822685441 0.0
0.42783709041261303 -0.017207575273540356 0.0
0.4517438694068084 -0.017731305203289686 0.0
0.47592634967988706 -0.018168904559969702 0.0
0.5003513083947223 -0.018515863758178947 0.0
0.5249846086011445 -0.018768363698912816 0.0
0.549791367324476 -0.018923288942074526 0.0
0.5747361315736804 -0.01897823729065398 0.0
0.599783060943464 -0.018931525668138407 0.0
0.6248961154630058 -0.01878219219782366 0.0
0.6500392473293111 -0.01852999442002282 0.0
0.675176595155608 -0.018175403610575673 0.0
0.7002726793649339 -0.01771959519140068 0.0
0.725292597366139 -0.01716443525095401 0.0
0.7502022171640782 -0.016512463219217833 0.0
0.7749683680776666 -0.015766870768085244 0.0
0.7995590272688059 -0.014931477033596345 0.0
0.8239435008216902 -0.01401070028126483 0.0
0.8480925981556499 -0.013009526159577473 0.0
0.8719787986051712 -0.01193347270951603 0.0
0.8955764090578843 -0.010788552319510343 0.0
0.918861711604755 -0.009581230835462529 0.0
0.9418131002261727 -0.008318384054266117 0.0
0.9644112056126795 -0.007007251846475381 0.0
0.9866390072993367 -0.0056553901693575685 0.0
1.0084819323777263 -0.004270621245394707 0.0
1.0299279401388288 -0.0028609821933130303 0.0
1.0509675920930286 -0.001434672408835398 0.0
1.0715941069097417 -5.163503308356804e-13 0.0
1.0918033999179755 0.0014346724078096755 0.0
1.1115941069100392 0.0028609821923016167 0.0
1.1309675920935494 0.00427062124440155 0.0
1.149927940139542 0.005655390168386338 0.0
1.1684819323786222 0.007007251845529608 0.0
1.1866390073004036 0.008318384053348981 0.0
1.2044112056139045 0.009581230834576895 0.0
1.2218131002275419 0.01078855231865873 0.0
1.2388617116062508 0.011933472708700526 0.0
1.2555764090594925 0.013009526158799968 0.0
1.2719787986068753 0.014010700280526736 0.0
1.2880925981574323 0.014931477032898719 0.0
1.3039435008235358 0.015766870767428852 0.0
1.3195590272706976 0.016512463218603068 0.0
1.3349683680795885 0.01716443525038088 0.0
1.3502022171660126 0.01771959519086882 0.0
1.3652925973680712 0.01817540361008448 0.0
1.3802726793668487 0.018529994419571382 0.0
1.3951765951574948 0.018782192197410827 0.0
1.4100392473311563 0.01893152566776279 0.0
1.4248961154648006 0.01897823729031402 0.0
1.4397830609451985 0.01892328894176851 0.0
1.4547361315753498 0.018768363698638945 0.0
1.4697913673260745 0.018515863757935354 0.0
1.4849846086026706 0.01816890455975445 0.0
1.5003513083961704 0.017731305203100792 0.0
1.515926349681255 0.01720757527337585 0.0
1.5317438694080925 0.016602898226712307 0.0
1.5478370904138152 0.015923111502572133 0.0
1.5642381625509352 0.01517468356163716 0.0
1.580978014295378 0.014364688070875098 0.0
1.5980862160559908 0.013500775481648577 0.0
1.6155908563610626 0.012591142269735687 0.0
1.6335184320457652 0.01164449812805565 0.0
1.6518937535081986 0.010670031423646706 0.0
1.6707398660412454 0.009677373249954263 0.0
1.6900779881834178 0.00867656042368402 0.0
1.709927467964824 0.007677997792308148 0.0
1.730305757855056 0.006692420233738866 0.0
1.7512284091487293 0.005730854743681442 0.0
1.7727090864524677 0.004804583018730708 0.0
1.7947596028649009 0.00392510495439061 0.0
1.8173899763696633 0.0031041034868877428 0.0
1.8406085078910444 0.0023534112159597897 0.0
1.8644218813938414 0.0016849792527712623 0.0
1.8888352863437594 0.0011108487428172099 0.0
1.9138525627833776 0.0006431255181984082 0.0
1.939476369221976 0.0002939583370973521 0.0
1.965708373486353 7.552117076660702e-05 0.0

CELLS 100 300
2 0 2
2 2 3
2 3 4
2 4 5
2 5 6
2 6 7
2 7 8
2 8 9
2 9 10
2 10 11
2 11 12
2 12 13
2 13 14
2 14 15
2 15 16
2 16 17
2 17 18
2 18 19
2 19 20
2 20 21
2 21 22
2 22 23
2 23 24
2 24 25
2 25 26
2 26 27
2 27 28
2 28 29
2 29 30
2 30 31
2 31 32
2 32 33
2 33 34
2 34 35
2 35 36
2 36 37
2 37 38
2 38 39
2 39 40
2 40 41
2 41 42
2 42 43
2 43 44
2 44 45
2 45 46
2 46 47
2 47 48
2 48 49
2 49 50
2 50 51
2 51 52
2 52 53
2 53 54
2 54 55
2 55 56
2 56 57
2 57 58
2 58 59
2 59 60
2 60 61
2 61 62
2 62 63
2 63 64
2 64 65
2 65 66
2 66 67
2 67 68
2 68 69
2 69 70
2 70 71
2 71 72
2 72 73
2 73 74
2 74 75
2 75 76
2 76 77
2 77 78
2 78 79
2 79 80
2 80 81
2 81 82
2 82 83
2 83 84
2 84 85
2 85 86
2 86 87
2 87 88
2 88 89
2 89 90
2 90 91
2 91 92
2 92 93
2 93 94
2 94 95
2 95 96
2 96 97
2 97 98
2 98 99
2 99 100
2 100 1

CELL_TYPES 100
3
3
3
3
3
3
3
3
3
3
3
3
3
3
3
3
3
3
3
3
3
3
3
3
3
3
3
3
3
3
3
3
3
3
3
3
3
3
3
3
3
3
3
3
3
3
3
3
3
3
3
3
3
3
3
3
3
3
3
3
3
3
3
3
3
3
3
3
3
3
3
3
3
3
3
3
3
3
3
3
3
3
3
3
3
3
3
3
3
3
3
3
3
3
3
3
3
3
3
3

POINT_DATA 101
SCALARS MODE2_619.3044_Hz float 1
LOOKUP_TABLE default
0.026678326394251408
0.0
0.00027042069938445454
0.02669908300799135
0.05122620198059031
0.0735970870188794
0.09382103666871622
0.11191006164386384
0.12787948854937414
0.1417486829959544
0.15354173192876894
0.16328807272747556
0.17102307352285254
0.17678857506277895
0.18063340979499545
0.18261392092327147
0.18279451462093704
0.18124829451167088
0.1780578524601362
0.17331632962096333
0.16712892693404371
0.1596151531053246
0.1509122830652464
0.1411808183798074
0.1306132909667855
0.1194486805475529
0.10799616053170648
0.09667354918822064
0.08606517552255694
0.07699038186627889
0.07052139906996296
0.06779307673419194
0.06950141315773865
0.07546310527554023
0.08478647049388952
0.09641173806823972
0.10945160536275443
0.1232537727216953
0.13735162014846516
0.1514044560584662
0.16515386844508056
0.1783958959139839
0.19096401355272147
0.20271881058131203
0.21354169713991591
0.22333103645467836
0.23199975169910905
0.23947384093247262
0.24569145754368366
0.25060234552465505
0.2541674979512153
0.2563589555978693
0.2571596933929035
0.2565635628299333
0.254575272935649
0.25121040379506954
0.24649545700115244
0.2404679585089744
0.23317664320750914
0.22468176974532517
0.2150556428734326
0.20438346558902168
0.1927647163133764
0.18031536755703845
0.16717146778711814
0.15349495947737
0.13948320450629575
0.12538466713938304
0.11152460413667803
0.09834571135527329
0.08646546035876494
0.07673032312148696
0.07018092003459094
0.06776358520223785
0.06979752698318221
0.07570959356789336
0.08439972464774602
0.09476895026187446
0.10595814165819621
0.11735092830459838
0.1285076113813851
0.13910468075092958
0.14889365925404777
0.1576754861769326
0.16528493749393947
0.17158112105141782
0.17644159358225697
0.17975864487126475
0.18143689083567074
0.18139166359647785
0.17954788762880722
0.17583924915807303
0.17020753655746107
0.1626020725539293
0.1529791858672218
0.1413016869830732
0.1275383239097795
0.11166320132918309
0.09365515225077523
0.07349705764894668
0.05117512820321649

