# vtk DataFile Version 2.0
mesh vtk view
ASCII
DATASET UNSTRUCTURED_GRID
POINTS 101 double
0.0016255146852023215 0.0 0.0
2.0 0.0 0.0
0.0199999999999621 -1.6384045101911234e-05 0.0
0.038374485314847176 -6.450500442008777e-05 0.0
0.05682630780655739 -0.00014281621561327404 0.0
0.07535545735256279 -0.0002497713644158073 0.0
0.09396190800848511 -0.0003838248753453271 0.0
0.11264561064553448 -0.0005434324457922176 0.0
0.13140648597486235 -0.000727051715754718 0.0
0.1502444179585787 -0.0009331430654899605 0.0
0.1691592476070486 -0.0011601705333612895 0.0
0.18815076716187412 -0.0014066028461758298 0.0
0.2072187146637435 -0.0016709145543245016 0.0
0.22636276890412424 -0.0019515872640605287 0.0
0.24558254475946964 -0.0022471109592815714 0.0
0.26487758890635904 -0.0025559854052165103 0.0
0.28424737591559956 -0.002876721626458799 0.0
0.30369130472301364 -0.003207843451837947 0.0
0.32320869547433134 -0.0035478891186777476 0.0
0.34279878674112874 -0.0038954129290531404 0.0
0.36246073310442495 -0.004248986950729968 0.0
0.3821936031021205 -0.004607202755552413 0.0
0.40199637753604905 -0.004968673188131903 0.0
0.42186794813396894 -0.005332034157788825 0.0
0.4418071165613986 -0.00569594644680499 0.0
0.46181259377774686 -0.006059097528160199 0.0
0.4818829997307346 -0.006420203386050761 0.0
0.5020168633826623 -0.0067780103326215 0.0
0.5222126230616082 -0.007131296814485408 0.0
0.5424686271301988 -0.007478875202756916 0.0
0.5627831349641325 -0.0078195935604857 0.0
0.5831543182321932 -0.008152337381547557 0.0
0.6035802624690378 -0.008476031295227693 0.0
0.6240589689316076 -0.008789640730919 0.0
0.6445883567295831 -0.009092173537553833 0.0
0.6651662652198808 -0.009382681552591875 0.0
0.6857904566547733 -0.009660262115599156 0.0
0.7064586190728271 -0.00992405952167321 0.0
0.7271683694214467 -0.010173266410197253 0.0
0.7479172568994683 -0.01040712508464127 0.0
0.7687027665078677 -0.010624928759369528 0.0
0.7895223227963257 -0.010826022729663059 0.0
0.810373293793055 -0.011009805461420006 0.0
0.8312529951050069 -0.011175729597257612 0.0
0.8521586941752858 -0.011323302876005545 0.0
0.8730876146843356 -0.011452088962851593 0.0
0.8940369410812287 -0.011561708187676158 0.0
0.9150038232311546 -0.011651838189392215 0.0
0.9359853811650287 -0.01172221446439059 0.0
0.956978709916955 -0.011772630817477573 0.0
0.9779808844351235 -0.011802939713981074 0.0
0.9989889645516385 -0.011813052531993651 0.0
1.0199999999965939 -0.011802939714013819 0.0
1.0410110354415796 -0.011772630817542649 0.0
1.0620191155582048 -0.01172221446448737 0.0
1.0830212900765146 -0.011651838189519845 0.0
1.1040146188285944 -0.01156170818783358 0.0
1.1249961767626326 -0.01145208896303757 0.0
1.1459630589127303 -0.011323302876218666 0.0
1.166912385309804 -0.011175729597496306 0.0
1.1878413058190425 -0.01100980546168255 0.0
1.2087470048895177 -0.010826022729947569 0.0
1.2296267062016721 -0.010624928759674024 0.0
1.2504776771986086 -0.010407125084963696 0.0
1.2712972334872796 -0.01017326641053545 0.0
1.2920827430958957 -0.009924059522024945 0.0
1.3128316305741363 -0.009660262115962166 0.0
1.3335413809229768 -0.009382681552963863 0.0
1.3542095433412542 -0.009092173537932461 0.0
1.3748337347763708 -0.008789640731301973 0.0
1.395411643266891 -0.008476031295612734 0.0
1.4159410310650866 -0.008152337381932452 0.0
1.436419737527875 -0.00781959356086826 0.0
1.4568456817649351 -0.007478875203135067 0.0
1.4772168650332067 -0.007131296814857185 0.0
1.4975313728673445 -0.00677801033298507 0.0
1.517787376936134 -0.006420203386404375 0.0
1.5379831366152734 -0.006059097528502267 0.0
1.5581170002673885 -0.005695946447134048 0.0
1.5781874062205559 -0.005332034158103578 0.0
1.598192883437077 -0.004968673188431175 0.0
1.6181320518646722 -0.004607202755835213 0.0
1.6380036224627497 -0.004248986950995467 0.0
1.657806396896827 -0.003895412929300696 0.0
1.677539266894665 -0.0035478891189068256 0.0
1.6972012132580956 -0.0032078434520481985 0.0
1.716791304525021 -0.0028767216266500123 0.0
1.7363086952764584 -0.002555985405388655 0.0
1.755752624083985 -0.0022471109594348116 0.0
1.7751224110933275 -0.0019515872641953725 0.0
1.7944174552403096 -0.0016709145544415935 0.0
1.8136372310957278 -0.001406602846275825 0.0
1.8327812853361634 -0.0011601705334449428 0.0
1.8518492328380776 -0.0009331430655582134 0.0
1.8708407523929398 -0.0007270517158086739 0.0
1.8897555820414371 -0.0005434324458331238 0.0
1.9085935140251735 -0.0003838248753745955 0.0
1.927354389354517 -0.0002497713644351002 0.0
1.9460380919915798 -0.00014281621562446775 0.0
1.9646445426475077 -6.450500442524444e-05 0.0
1.9831736921935088 -1.6384045103250366e-05 0.0

CELLS 100 300
2 0 2
2 2 3
2 3 4
2 4 5
2 5 6
2 6 7
2 7 8
2 8 9
2 9 10
2 10 11
2 11 12
2 12 13
2 13 14
2 14 15
2 15 16
2 16 17
2 17 18
2 18 19
2 19 20
2 20 21
2 21 22
2 22 23
2 23 24
2 24 25
2 25 26
2 26 27
2 27 28
2 28 29
2 29 30
2 30 31
2 31 32
2 32 33
2 33 34
2 34 35
2 35 36
2 36 37
2 37 38
2 38 39
2 39 40
2 40 41
2 41 42
2 42 43
2 43 44
2 44 45
2 45 46
2 46 47
2 47 48
2 48 49
2 49 50
2 50 51
2 51 52
2 52 53
2 53 54
2 54 55
2 55 56
2 56 57
2 57 58
2 58 59
2 59 60
2 60 61
2 61 62
2 62 63
2 63 64
2 64 65
2 65 66
2 66 67
2 67 68
2 68 69
2 69 70
2 70 71
2 71 72
2 72 73
2 73 74
2 74 75
2 75 76
2 76 77
2 77 78
2 78 79
2 79 80
2 80 81
2 81 82
2 82 83
2 83 84
2 84 85
2 85 86
2 86 87
2 87 88
2 88 89
2 89 90
2 90 91
2 91 92
2 92 93
2 93 94
2 94 95
2 95 96
2 96 97
2 97 98
2 98 99
2 99 100
2 100 1

CELL_TYPES 100
3
3
3
3
3
3
3
3
3
3
3
3
3
3
3
3
3
3
3
3
3
3
3
3
3
3
3
3
3
3
3
3
3
3
3
3
3
3
3
3
3
3
3
3
3
3
3
3
3
3
3
3
3
3
3
3
3
3
3
3
3
3
3
3
3
3
3
3
3
3
3
3
3
3
3
3
3
3
3
3
3
3
3
3
3
3
3
3
3
3
3
3
3
3
3
3
3
3
3
3

POINT_DATA 101
SCALARS MODE1_224.6674_Hz float 1
LOOKUP_TABLE default
0.009839986425673712
0.0
9.918014452165108e-05
0.00984773101890709
0.01923125756804173
0.028156174108346914
0.036625115811995256
0.04464086832169539
0.05220633260855651
0.05932455773785581
0.06599878065282873
0.07223246627140016
0.0780293466223999
0.08339345874816122
0.08832918136440242
0.09284127036454158
0.09693489330653715
0.1006156630591818
0.10388967082203092
0.10676351877379099
0.10924435264962322
0.11133989460088553
0.1130584767524032
0.11440907594405157
0.11540135022666352
0.11604567777848329
0.11635319901867187
0.11633586281913459
0.11600647785461882
0.11537877028068445
0.11446744908359988
0.11328828059331027
0.11185817376935527
0.1101952779246214
0.10831909448671845
0.10625060412339346
0.1040124099434102
0.10162889633141109
0.09912640100617362
0.09653339472872684
0.09388065825194664
0.09120143905313052
0.08853156063396117
0.08590944452592014
0.08337599020785517
0.08097424305393883
0.07874876974297165
0.07674466192433452
0.07500611259531875
0.07357456543914777
0.07248652832715774
0.07177125602346124
0.07144861109297548
0.0715274591665484
0.07200490559309085
0.07286653094130159
0.07408757674419197
0.07563484445809539
0.07746896438320575
0.0795466895133747
0.0818229486118914
0.08425250682316024
0.08679118850547873
0.0893966923627198
0.09202906909452234
0.09465094384422923
0.09722756034503739
0.09972671012242305
0.10211859462184507
0.10437565403648759
0.10647238523385957
0.10838516268797674
0.1100920703434043
0.1115727483279259
0.11280825586717523
0.11378095020178221
0.11447438043331021
0.1148731947905329
0.11496305964658836
0.11473058861955117
0.11416328018151412
0.11324946233889537
0.1119782431011355
0.11033946561003322
0.10832366694849166
0.10592203978109783
0.10312639609800055
0.09992913243800174
0.0963231960575093
0.09230205159027531
0.0878596478101663
0.08299038416712497
0.07768907681659518
0.0719509239068133
0.0657714699290416
0.05914656897777683
0.0520723468227977
0.04454516179784064
0.036561564791962646
0.028118259694848737
0.019212071430569036

