# vtk DataFile Version 2.0
mesh vtk view
ASCII
DATASET UNSTRUCTURED_GRID
POINTS 101 double
-0.0031930857278810927 0.0 0.0
2.0 0.0 0.0
0.0199999999999621 -3.2366216042479535e-05 0.0
0.03680691427206366 -0.00012598214446927274 0.0
0.05387501720834969 -0.00027562522208342456 0.0
0.07120415823786491 -0.00047607803263383547 0.0
0.0887939554784247 -0.0007221339654709247 0.0
0.10664369414711991 -0.0010086048068373209 0.0
0.12475223488283477 -0.001330330065806739 0.0
0.14311793195303274 -0.0016821878375944052 0.0
0.16173856130097847 -0.0020591070080270245 0.0
0.18061125837033148 -0.0024560806044360774 0.0
0.19973246562211092 -0.002868180100177073 0.0
0.21909788963475718 -0.003290570482423599 0.0
0.23870246765170433 -0.003718525895873228 0.0
0.25854034341297133 -0.0041474456785636155 0.0
0.2786048520780186 -0.0045728706101498375 0.0
0.29888851401701955 -0.004990499197758068 0.0
0.31938303721707645 -0.005396203829911669 0.0
0.3400793280188292 -0.005786046635022863 0.0
0.36096750986817566 -0.006156294887554941 0.0
0.3820369497373636 -0.00650343581217442 0.0
0.40327629183989044 -0.006824190644011641 0.0
0.4246734982350619 -0.007115527811509033 0.0
0.44621589589051336 -0.007374675117231581 0.0
0.4678902297451352 -0.007599130801409864 0.0
0.48968272129070695 -0.0077866733828441574 0.0
0.5115791321684601 -0.007935370182076691 0.0
0.5335648322568934 -0.008043584442391205 0.0
0.5556248717097164 -0.008109980975174796 0.0
0.5777440563879136 -0.008133530267423132 0.0
0.5999070261177873 -0.008113511000630744 0.0
0.6220983351975576 -0.008049510941924423 0.0
0.6443025345687979 -0.00794142618000978 0.0
0.6665042550657491 -0.0077894586902467165 0.0
0.6886882911554268 -0.007594112224886005 0.0
0.7108396845844813 -0.007356186536123146 0.0
0.7329438073549933 -0.007076769951093357 0.0
0.7549864434607835 -0.006757230329179389 0.0
0.7769538688283814 -0.006399204442969862 0.0
0.7988329289224413 -0.006004585834827783 0.0
0.8206111134941049 -0.005575511211247487 0.0
0.8422766279724379 -0.005114345446935441 0.0
0.8638184610235672 -0.004623665279790147 0.0
0.8852264478293357 -0.004106241786626798 0.0
0.9064913286670527 -0.003565021737542622 0.0
0.9276048024040937 -0.0030031079342037344 0.0
0.9485595745554848 -0.002423738644010386 0.0
0.969349399589047 -0.0018302662480263027 0.0
0.9899691172009147 -0.0012261352257055844 0.0
1.0104146823241098 -0.000614859603786599 0.0
1.0306831886741088 -2.2129299892957724e-13 0.0
1.0507728856776553 0.0006148596033470037 0.0
1.0706831886742842 0.0012261352252721214 0.0
1.0904146823243903 0.001830266247600664 0.0
1.1099691172012738 0.0024237386435941445 0.0
1.1293493995894814 0.0030031079337984033 0.0
1.1485595745559896 0.003565021737149563 0.0
1.167604802404663 0.00410624178624724 0.0
1.1864913286676808 0.004623665279425169 0.0
1.2052264478300143 0.005114345446585939 0.0
1.223818461024291 0.005575511210914271 0.0
1.2422766279731996 0.006004585834511458 0.0
1.2606111134948967 0.006399204442670879 0.0
1.278832928923257 0.006757230328898079 0.0
1.296953868829214 0.007076769950829885 0.0
1.3149864434616259 0.00735618653587752 0.0
1.3329438073558373 0.007594112224658064 0.0
1.3508396845853214 0.007789458690036204 0.0
1.3686882911562563 0.007941426179816306 0.0
1.3865042550665634 0.008049510941747497 0.0
1.404302534569591 0.008113511000469765 0.0
1.422098335198326 0.008133530267277436 0.0
1.4399070261185267 0.008109980975043646 0.0
1.457744056388622 0.008043584442273832 0.0
1.4756248717103908 0.007935370181972294 0.0
1.4935648322575337 0.007786673382751907 0.0
1.5115791321690637 0.007599130801328909 0.0
1.5296827212912731 0.0073746751171610775 0.0
1.547890229745662 0.007115527811448131 0.0
1.566215895891002 0.006824190643959485 0.0
1.5846734982355122 0.00650343581213021 0.0
1.6032762918403038 0.006156294887517898 0.0
1.622036949737739 0.005786046634992247 0.0
1.6409675098685144 0.005396203829886722 0.0
1.6600793280191313 0.0049904991977381356 0.0
1.6793830372173475 0.004572870610134302 0.0
1.6988885140172543 0.004147445678551826 0.0
1.7186048520782156 0.0037185258958645794 0.0
1.7385403434131343 0.003290570482417777 0.0
1.7587024676518355 0.0028681801001737995 0.0
1.7790978896348681 0.0024560806044349034 0.0
1.799732465622215 0.002059107008027446 0.0
1.8206112583704306 0.0016821878375959756 0.0
1.8417385613010735 0.0013303300658090325 0.0
1.8631179319531235 0.0010086048068399097 0.0
1.884752234882924 0.0007221339654733981 0.0
1.906643694147205 0.00047607803263594706 0.0
1.9287939554785 0.00027562522208503205 0.0
1.9512041582379291 0.00012598214447029373 0.0
1.9738750172084067 3.236621604283157e-05 0.0

CELLS 100 300
2 0 2
2 2 3
2 3 4
2 4 5
2 5 6
2 6 7
2 7 8
2 8 9
2 9 10
2 10 11
2 11 12
2 12 13
2 13 14
2 14 15
2 15 16
2 16 17
2 17 18
2 18 19
2 19 20
2 20 21
2 21 22
2 22 23
2 23 24
2 24 25
2 25 26
2 26 27
2 27 28
2 28 29
2 29 30
2 30 31
2 31 32
2 32 33
2 33 34
2 34 35
2 35 36
2 36 37
2 37 38
2 38 39
2 39 40
2 40 41
2 41 42
2 42 43
2 43 44
2 44 45
2 45 46
2 46 47
2 47 48
2 48 49
2 49 50
2 50 51
2 51 52
2 52 53
2 53 54
2 54 55
2 55 56
2 56 57
2 57 58
2 58 59
2 59 60
2 60 61
2 61 62
2 62 63
2 63 64
2 64 65
2 65 66
2 66 67
2 67 68
2 68 69
2 69 70
2 70 71
2 71 72
2 72 73
2 73 74
2 74 75
2 75 76
2 76 77
2 77 78
2 78 79
2 79 80
2 80 81
2 81 82
2 82 83
2 83 84
2 84 85
2 85 86
2 86 87
2 87 88
2 88 89
2 89 90
2 90 91
2 91 92
2 92 93
2 93 94
2 94 95
2 95 96
2 96 97
2 97 98
2 98 99
2 99 100
2 100 1

CELL_TYPES 100
3
3
3
3
3
3
3
3
3
3
3
3
3
3
3
3
3
3
3
3
3
3
3
3
3
3
3
3
3
3
3
3
3
3
3
3
3
3
3
3
3
3
3
3
3
3
3
3
3
3
3
3
3
3
3
3
3
3
3
3
3
3
3
3
3
3
3
3
3
3
3
3
3
3
3
3
3
3
3
3
3
3
3
3
3
3
3
3
3
3
3
3
3
3
3
3
3
3
3
3

POINT_DATA 101
SCALARS MODE2_619.3044_Hz float 1
LOOKUP_TABLE default
0.026678326394251408
0.0
0.00027042069938445454
0.02669908300799135
0.05122620198059031
0.0735970870188794
0.09382103666871622
0.11191006164386384
0.12787948854937414
0.1417486829959544
0.15354173192876894
0.16328807272747556
0.17102307352285254
0.17678857506277895
0.18063340979499545
0.18261392092327147
0.18279451462093704
0.18124829451167088
0.1780578524601362
0.17331632962096333
0.16712892693404371
0.1596151531053246
0.1509122830652464
0.1411808183798074
0.1306132909667855
0.1194486805475529
0.10799616053170648
0.09667354918822064
0.08606517552255694
0.07699038186627889
0.07052139906996296
0.06779307673419194
0.06950141315773865
0.07546310527554023
0.08478647049388952
0.09641173806823972
0.10945160536275443
0.1232537727216953
0.13735162014846516
0.1514044560584662
0.16515386844508056
0.1783958959139839
0.19096401355272147
0.20271881058131203
0.21354169713991591
0.22333103645467836
0.23199975169910905
0.23947384093247262
0.24569145754368366
0.25060234552465505
0.2541674979512153
0.2563589555978693
0.2571596933929035
0.2565635628299333
0.254575272935649
0.25121040379506954
0.24649545700115244
0.2404679585089744
0.23317664320750914
0.22468176974532517
0.2150556428734326
0.20438346558902168
0.1927647163133764
0.18031536755703845
0.16717146778711814
0.15349495947737
0.13948320450629575
0.12538466713938304
0.11152460413667803
0.09834571135527329
0.08646546035876494
0.07673032312148696
0.07018092003459094
0.06776358520223785
0.06979752698318221
0.07570959356789336
0.08439972464774602
0.09476895026187446
0.10595814165819621
0.11735092830459838
0.1285076113813851
0.13910468075092958
0.14889365925404777
0.1576754861769326
0.16528493749393947
0.17158112105141782
0.17644159358225697
0.17975864487126475
0.18143689083567074
0.18139166359647785
0.17954788762880722
0.17583924915807303
0.17020753655746107
0.1626020725539293
0.1529791858672218
0.1413016869830732
0.1275383239097795
0.11166320132918309
0.09365515225077523
0.07349705764894668
0.05117512820321649

