# vtk DataFile Version 2.0
mesh vtk view
ASCII
DATASET UNSTRUCTURED_GRID
POINTS 101 double
0.0009528879189117055 0.0 0.0
2.0 0.0 0.0
0.0199999999999621 -9.60444023215486e-06 0.0
0.039047112081086084 -3.7813278453154894e-05 0.0
0.05813955974862432 -8.371985053191926e-05 0.0
0.07727733706867887 -0.00014641769638168014 0.0
0.09646042883247698 -0.00022500078899553654 0.0
0.1156888062403848 -0.00031856384753336896 0.0
0.1349624228127346 -0.00042620272992517947 0.0
0.1542812105273142 -0.000547014900459632 0.0
0.17364507618330113 -0.0006800999678324799 0.0
0.19305389799128964 -0.0008245602891375553 0.0
0.2125075223889245 -0.0009795016352936732 0.0
0.23200576108154805 -0.0011440339134147926 0.0
0.2515483883070769 -0.0013172719416478177 0.0
0.2711351383241956 -0.0014983362720234713 0.0
0.29076570312269173 -0.0016863540568896407 0.0
0.3104397303546 -0.0018804599545256928 0.0
0.33015682148465864 -0.0020797970695697137 0.0
0.3499165301582743 -0.0022835179239277027 0.0
0.36971836078501 -0.002490785453876187 0.0
0.38956176733535913 -0.002700774029116931 0.0
0.40944615234832754 -0.0029126704895945633 0.0
0.42937086614708403 -0.003125675195945173 0.0
0.449335206259691 -0.003339003089506373 0.0
0.4693384170416642 -0.0035518847578870126 0.0
0.4893796894968397 -0.003763567502167687 0.0
0.5094581612927731 -0.003973316401881568 0.0
0.5295729169666138 -0.004180415374008687 0.0
0.5497229883171428 -0.004384168222305778 0.0
0.5699073549783901 -0.004583899673388168 0.0
0.5901249451699877 -0.004778956396079601 0.0
0.6103746366191484 -0.004968708000650715 0.0
0.6306552576489065 -0.005152548014676655 0.0
0.6509655884270059 -0.005329894832359143 0.0
0.67130436236957 -0.005500192634277996 0.0
0.6916702676934484 -0.005662912274661574 0.0
0.712061949110904 -0.00581755213339464 0.0
0.7324780096600707 -0.005963638930115631 0.0
0.752917012664404 -0.006100728497893157 0.0
0.7733774838141313 -0.00622840651411317 0.0
0.7938579133625134 -0.006346289186354206 0.0
0.8143567584295376 -0.006454023891177244 0.0
0.8348724454054852 -0.0065512897639096335 0.0
0.855403372446659 -0.006637798237658422 0.0
0.8759479120553882 -0.006713293529947485 0.0
0.8965044137363014 -0.006777553075534299 0.0
0.9170712067207165 -0.00683038790412647 0.0
0.9376466027508944 -0.006871642961884138 0.0
0.9582288989157927 -0.006901197375762715 0.0
0.9788163805298672 -0.0069189646599199395 0.0
0.9994073240464298 -0.006924892863582484 0.0
1.0199999999969336 -0.006918964659939134 0.0
1.0405926759474644 -0.006901197375800862 0.0
1.0611836194641289 -0.006871642961940871 0.0
1.0817711010783317 -0.006830387904201288 0.0
1.1023533972433661 -0.00677755307562658 0.0
1.1229287932736862 -0.006713293530056506 0.0
1.143495586258248 -0.006637798237783355 0.0
1.1640520879393133 -0.006551289764049558 0.0
1.1845966275481987 -0.00645402389133115 0.0
1.205127554589534 -0.0063462891865209885 0.0
1.2256432415656464 -0.006228406514291669 0.0
1.2461420866328374 -0.0061007284980821655 0.0
1.2666225161813907 -0.0059636389303138835 0.0
1.287082987331291 -0.0058175521336008285 0.0
1.3075219903357986 -0.005662912274874372 0.0
1.3279380508851406 -0.0055001926344960565 0.0
1.3483297323027734 -0.005329894832581097 0.0
1.368695637626829 -0.0051525480149011565 0.0
1.3890344115695699 -0.00496870800087643 0.0
1.409344742347844 -0.00477895639630523 0.0
1.4296253633777765 -0.004583899673612428 0.0
1.4498750548271093 -0.004384168222527453 0.0
1.4700926450188767 -0.004180415374226625 0.0
1.4902770116802893 -0.003973316402094695 0.0
1.5104270830309812 -0.0037635675023749778 0.0
1.5305418387049812 -0.0035518847580875354 0.0
1.5506203105010705 -0.003339003089699269 0.0
1.5706615829563972 -0.0031256751961296833 0.0
1.5906647937385179 -0.002912670489769999 0.0
1.610629133851268 -0.0027007740292827108 0.0
1.6305538476501629 -0.002490785454031825 0.0
1.650438232663264 -0.0022835179240728214 0.0
1.6702816392137427 -0.002079797069704001 0.0
1.6900834698406033 -0.0018804599546489438 0.0
1.7098431785143402 -0.0016863540570017312 0.0
1.7295602696445147 -0.0014983362721243839 0.0
1.7492342968765349 -0.001317271941737648 0.0
1.768864861675137 -0.001144033913493839 0.0
1.7884516116923552 -0.0009795016353623134 0.0
1.8079942389179668 -0.0008245602891961733 0.0
1.8274924776106578 -0.0006800999678815181 0.0
1.8469461020083537 -0.0005470149004996423 0.0
1.8663549238163981 -0.0004262027299568088 0.0
1.8857187894724354 -0.0003185638475573484 0.0
1.9050375771870613 -0.00022500078901269388 0.0
1.9243111937594573 -0.00014641769639298972 0.0
1.9435395711674126 -8.371985053848108e-05 0.0
1.9627226629312537 -3.7813278456177765e-05 0.0
1.9818604402513453 -9.604440232939868e-06 0.0

CELLS 100 300
2 0 2
2 2 3
2 3 4
2 4 5
2 5 6
2 6 7
2 7 8
2 8 9
2 9 10
2 10 11
2 11 12
2 12 13
2 13 14
2 14 15
2 15 16
2 16 17
2 17 18
2 18 19
2 19 20
2 20 21
2 21 22
2 22 23
2 23 24
2 24 25
2 25 26
2 26 27
2 27 28
2 28 29
2 29 30
2 30 31
2 31 32
2 32 33
2 33 34
2 34 35
2 35 36
2 36 37
2 37 38
2 38 39
2 39 40
2 40 41
2 41 42
2 42 43
2 43 44
2 44 45
2 45 46
2 46 47
2 47 48
2 48 49
2 49 50
2 50 51
2 51 52
2 52 53
2 53 54
2 54 55
2 55 56
2 56 57
2 57 58
2 58 59
2 59 60
2 60 61
2 61 62
2 62 63
2 63 64
2 64 65
2 65 66
2 66 67
2 67 68
2 68 69
2 69 70
2 70 71
2 71 72
2 72 73
2 73 74
2 74 75
2 75 76
2 76 77
2 77 78
2 78 79
2 79 80
2 80 81
2 81 82
2 82 83
2 83 84
2 84 85
2 85 86
2 86 87
2 87 88
2 88 89
2 89 90
2 90 91
2 91 92
2 92 93
2 93 94
2 94 95
2 95 96
2 96 97
2 97 98
2 98 99
2 99 100
2 100 1

CELL_TYPES 100
3
3
3
3
3
3
3
3
3
3
3
3
3
3
3
3
3
3
3
3
3
3
3
3
3
3
3
3
3
3
3
3
3
3
3
3
3
3
3
3
3
3
3
3
3
3
3
3
3
3
3
3
3
3
3
3
3
3
3
3
3
3
3
3
3
3
3
3
3
3
3
3
3
3
3
3
3
3
3
3
3
3
3
3
3
3
3
3
3
3
3
3
3
3
3
3
3
3
3
3

POINT_DATA 101
SCALARS MODE1_224.6674_Hz float 1
LOOKUP_TABLE default
0.009839986425673712
0.0
9.918014452165108e-05
0.00984773101890709
0.01923125756804173
0.028156174108346914
0.036625115811995256
0.04464086832169539
0.05220633260855651
0.05932455773785581
0.06599878065282873
0.07223246627140016
0.0780293466223999
0.08339345874816122
0.08832918136440242
0.09284127036454158
0.09693489330653715
0.1006156630591818
0.10388967082203092
0.10676351877379099
0.10924435264962322
0.11133989460088553
0.1130584767524032
0.11440907594405157
0.11540135022666352
0.11604567777848329
0.11635319901867187
0.11633586281913459
0.11600647785461882
0.11537877028068445
0.11446744908359988
0.11328828059331027
0.11185817376935527
0.1101952779246214
0.10831909448671845
0.10625060412339346
0.1040124099434102
0.10162889633141109
0.09912640100617362
0.09653339472872684
0.09388065825194664
0.09120143905313052
0.08853156063396117
0.08590944452592014
0.08337599020785517
0.08097424305393883
0.07874876974297165
0.07674466192433452
0.07500611259531875
0.07357456543914777
0.07248652832715774
0.07177125602346124
0.07144861109297548
0.0715274591665484
0.07200490559309085
0.07286653094130159
0.07408757674419197
0.07563484445809539
0.07746896438320575
0.0795466895133747
0.0818229486118914
0.08425250682316024
0.08679118850547873
0.0893966923627198
0.09202906909452234
0.09465094384422923
0.09722756034503739
0.09972671012242305
0.10211859462184507
0.10437565403648759
0.10647238523385957
0.10838516268797674
0.1100920703434043
0.1115727483279259
0.11280825586717523
0.11378095020178221
0.11447438043331021
0.1148731947905329
0.11496305964658836
0.11473058861955117
0.11416328018151412
0.11324946233889537
0.1119782431011355
0.11033946561003322
0.10832366694849166
0.10592203978109783
0.10312639609800055
0.09992913243800174
0.0963231960575093
0.09230205159027531
0.0878596478101663
0.08299038416712497
0.07768907681659518
0.0719509239068133
0.0657714699290416
0.05914656897777683
0.0520723468227977
0.04454516179784064
0.036561564791962646
0.028118259694848737
0.019212071430569036

