# vtk DataFile Version 2.0
mesh vtk view
ASCII
DATASET UNSTRUCTURED_GRID
POINTS 101 double
0.006740958758860087 0.0 0.0
2.0 0.0 0.0
0.0199999999999621 6.832867831190126e-05 0.0
0.04674095875874193 0.000265962304990687 0.0
0.0729305192264621 0.0005818754688427854 0.0
0.09856899927513102 0.0010050536244492086 0.0
0.1236572051004774 0.0015245050382163973 0.0
0.14819664568865473 0.002129276814434345 0.0
0.17218972635758972 0.0028084745833697835 0.0
0.19563992143152048 0.0035512854349215237 0.0
0.21855192614131763 0.004347003683612609 0.0
0.2409317878836994 0.005185059053809498 0.0
0.26278701701873614 0.006055046878151601 0.0
0.28412667743638176 0.006946759907338712 0.0
0.3049614571782435 0.007850221335732373 0.0
0.32530371945983777 0.008755718654745413 0.0
0.34516753450011173 0.009653837954760772 0.0
0.36456869262870595 0.010535498306378148 0.0
0.38352469920618215 0.011391985863146862 0.0
0.40205475195785556 0.012214987340603826 0.0
0.4201797013868316 0.012996622540393769 0.0
0.43792199499614204 0.013729475603479337 0.0
0.45530560611284815 0.01440662469291347 0.0
0.47235594816730475 0.015021669824296853 0.0
0.48909977533894744 0.015568758580822233 0.0
0.5055650705345645 0.016042609469643053 0.0
0.5217809217159535 0.01643853269711545 0.0
0.537777387640515 0.01675244816216191 0.0
0.5535853541203075 0.01698090048949255 0.0
0.5692363819419443 0.017121070947591244 0.0
0.5847625476211242 0.017170786120115508 0.0
0.6001962781912087 0.0171285232235538 0.0
0.6155701812448453 0.016993411988507123 0.0
0.6309168714609341 0.016765233046687318 0.0
0.6462687948560784 0.016444412790520852 0.0
0.6616580519999103 0.016032014696981574 0.0
0.67711622142728 0.015529727131815538 0.0
0.6926741844671286 0.014939847674530425 0.0
0.7083619526880565 0.014265264028267605 0.0
0.7242084991340575 0.013509431601825269 0.0
0.7402415944908605 0.012676347873525326 0.0
0.7564876492838333 0.011770523668189144 0.0
0.7729715631627265 0.010796951499085935 0.0
0.7897165822768273 0.009761071146223647 0.0
0.8067441656866904 0.008668732660656576 0.0
0.8240738616957727 0.007526157001478871 0.0
0.8417231949173934 0.006339894527763442 0.0
0.8597075648198302 0.0051167815817997064 0.0
0.8780401564154618 0.0038638954124999743 0.0
0.8967318636791152 0.00258850769871179 0.0
0.9157912261966328 0.001298036941327265 0.0
0.9352243794576321 4.671741088513299e-13 0.0
0.9550350191169078 -0.0012980369403992305 0.0
0.9752243794575226 -0.002588507697796702 0.0
0.9957912261963523 -0.0038638954116014036 0.0
1.0167318636786487 -0.005116781580920974 0.0
1.0380401564148198 -0.006339894526907743 0.0
1.0597075648190235 -0.007526157000649081 0.0
1.081723194916433 -0.008668732659855289 0.0
1.1040738616946717 -0.009761071145453139 0.0
1.1267441656854624 -0.010796951498348098 0.0
1.1497165822754878 -0.01177052366748569 0.0
1.1729715631612898 -0.012676347872857527 0.0
1.1964876492823135 -0.013509431601194083 0.0
1.2202415944892735 -0.014265264027673728 0.0
1.2442084991324187 -0.014939847673974209 0.0
1.2683619526863799 -0.015529727131296992 0.0
1.2926741844654284 -0.016032014696500365 0.0
1.3171162214255718 -0.01644441279007644 0.0
1.341658051998207 -0.016765233046278874 0.0
1.3662687948543903 -0.01699341198813361 0.0
1.390916871459272 -0.017128523223213957 0.0
1.4155701812432187 -0.017170786119807928 0.0
1.440196278189626 -0.01712107094731437 0.0
1.4647625476195902 -0.016980900489244763 0.0
1.489236381940462 -0.016752448161941515 0.0
1.513585354118881 -0.0164385326969207 0.0
1.5377773876391487 -0.016042609469472148 0.0
1.5617809217146494 -0.015568758580673392 0.0
1.585565070533324 -0.015021669824168282 0.0
1.6090997753377712 -0.014406624692803361 0.0
1.6323559481661918 -0.013729475603386006 0.0
1.655305606111797 -0.01299662254031557 0.0
1.6779219949951512 -0.012214987340539192 0.0
1.7001797013859015 -0.011391985863094197 0.0
1.7220547519569858 -0.010535498306336068 0.0
1.7435246992053612 -0.009653837954727976 0.0
1.7645686926279418 -0.008755718654720525 0.0
1.7851675344994107 -0.007850221335714115 0.0
1.8053037194591917 -0.006946759907326422 0.0
1.824961457177654 -0.00605504687814469 0.0
1.8441266774358582 -0.00518505905380702 0.0
1.8627870170182912 -0.004347003683613499 0.0
1.8809317878833334 -0.0035512854349248387 0.0
1.8985519261410304 -0.0028084745833746256 0.0
1.9156399214313087 -0.0021292768144398106 0.0
1.9321897263574501 -0.0015245050382216188 0.0
1.9481966456885778 -0.0010050536244536664 0.0
1.9636572051004528 -0.000581875468846179 0.0
1.9785689992751532 -0.00026596230499284246 0.0
1.9929305192265319 -6.832867831264446e-05 0.0

CELLS 100 300
2 0 2
2 2 3
2 3 4
2 4 5
2 5 6
2 6 7
2 7 8
2 8 9
2 9 10
2 10 11
2 11 12
2 12 13
2 13 14
2 14 15
2 15 16
2 16 17
2 17 18
2 18 19
2 19 20
2 20 21
2 21 22
2 22 23
2 23 24
2 24 25
2 25 26
2 26 27
2 27 28
2 28 29
2 29 30
2 30 31
2 31 32
2 32 33
2 33 34
2 34 35
2 35 36
2 36 37
2 37 38
2 38 39
2 39 40
2 40 41
2 41 42
2 42 43
2 43 44
2 44 45
2 45 46
2 46 47
2 47 48
2 48 49
2 49 50
2 50 51
2 51 52
2 52 53
2 53 54
2 54 55
2 55 56
2 56 57
2 57 58
2 58 59
2 59 60
2 60 61
2 61 62
2 62 63
2 63 64
2 64 65
2 65 66
2 66 67
2 67 68
2 68 69
2 69 70
2 70 71
2 71 72
2 72 73
2 73 74
2 74 75
2 75 76
2 76 77
2 77 78
2 78 79
2 79 80
2 80 81
2 81 82
2 82 83
2 83 84
2 84 85
2 85 86
2 86 87
2 87 88
2 88 89
2 89 90
2 90 91
2 91 92
2 92 93
2 93 94
2 94 95
2 95 96
2 96 97
2 97 98
2 98 99
2 99 100
2 100 1

CELL_TYPES 100
3
3
3
3
3
3
3
3
3
3
3
3
3
3
3
3
3
3
3
3
3
3
3
3
3
3
3
3
3
3
3
3
3
3
3
3
3
3
3
3
3
3
3
3
3
3
3
3
3
3
3
3
3
3
3
3
3
3
3
3
3
3
3
3
3
3
3
3
3
3
3
3
3
3
3
3
3
3
3
3
3
3
3
3
3
3
3
3
3
3
3
3
3
3
3
3
3
3
3
3

POINT_DATA 101
SCALARS MODE2_619.3044_Hz float 1
LOOKUP_TABLE default
0.026678326394251408
0.0
0.00027042069938445454
0.02669908300799135
0.05122620198059031
0.0735970870188794
0.09382103666871622
0.11191006164386384
0.12787948854937414
0.1417486829959544
0.15354173192876894
0.16328807272747556
0.17102307352285254
0.17678857506277895
0.18063340979499545
0.18261392092327147
0.18279451462093704
0.18124829451167088
0.1780578524601362
0.17331632962096333
0.16712892693404371
0.1596151531053246
0.1509122830652464
0.1411808183798074
0.1306132909667855
0.1194486805475529
0.10799616053170648
0.09667354918822064
0.08606517552255694
0.07699038186627889
0.07052139906996296
0.06779307673419194
0.06950141315773865
0.07546310527554023
0.08478647049388952
0.09641173806823972
0.10945160536275443
0.1232537727216953
0.13735162014846516
0.1514044560584662
0.16515386844508056
0.1783958959139839
0.19096401355272147
0.20271881058131203
0.21354169713991591
0.22333103645467836
0.23199975169910905
0.23947384093247262
0.24569145754368366
0.25060234552465505
0.2541674979512153
0.2563589555978693
0.2571596933929035
0.2565635628299333
0.254575272935649
0.25121040379506954
0.24649545700115244
0.2404679585089744
0.23317664320750914
0.22468176974532517
0.2150556428734326
0.20438346558902168
0.1927647163133764
0.18031536755703845
0.16717146778711814
0.15349495947737
0.13948320450629575
0.12538466713938304
0.11152460413667803
0.09834571135527329
0.08646546035876494
0.07673032312148696
0.07018092003459094
0.06776358520223785
0.06979752698318221
0.07570959356789336
0.08439972464774602
0.09476895026187446
0.10595814165819621
0.11735092830459838
0.1285076113813851
0.13910468075092958
0.14889365925404777
0.1576754861769326
0.16528493749393947
0.17158112105141782
0.17644159358225697
0.17975864487126475
0.18143689083567074
0.18139166359647785
0.17954788762880722
0.17583924915807303
0.17020753655746107
0.1626020725539293
0.1529791858672218
0.1413016869830732
0.1275383239097795
0.11166320132918309
0.09365515225077523
0.07349705764894668
0.05117512820321649

