# vtk DataFile Version 2.0
mesh vtk view
ASCII
DATASET UNSTRUCTURED_GRID
POINTS 101 double
-5.6052230524218026e-05 0.0 0.0
2.0 0.0 0.0
0.0199999999999621 5.649670724796982e-07 0.0
0.04005605223044444 2.224310497244408e-06 0.0
0.06010943766172473 4.924697090112902e-06 0.0
0.08016015664285298 8.612805669510603e-06 0.0
0.10020821006846477 1.323534052914922e-05 0.0
0.12025359963266029 1.8739049854904074e-05 0.0
0.14029632806954298 2.5070748819128228e-05 0.0
0.16033639938041747 3.217734708586073e-05 0.0
0.18037381904767996 4.000588046073415e-05 0.0
0.20040859423541293 4.850354641985624e-05 0.0
0.22044073397669603 5.7617743252569063e-05 0.0
0.24047024934768374 6.729611255381139e-05 0.0
0.2604971536284878 7.748658480281287e-05 0.0
0.2805214624509505 8.813742776608663e-05 0.0
0.30054319393333 9.91972974640966e-05 0.0
0.3205623688019795 0.00011061529144268792 0.0
0.3405790105001496 0.00012234100409233624 0.0
0.3605931452839926 0.00013432458376045324 0.0
0.38060480230588767 0.00014651679140448173 0.0
0.400614013685217 0.00015886906053629021 0.0
0.42062081456674527 0.00017133355821144505 0.0
0.44062524316675666 0.00018386324682030447 0.0
0.46062734080712964 0.00019641194644155153 0.0
0.4806271519375401 0.00020893439752276563 0.0
0.5006247241459973 0.00022138632365692297 0.0
0.5206201081579394 0.00023372449422832776 0.0
0.5406133578241222 0.00024590678670639355 0.0
0.5606045300975588 0.00025789224837092833 0.0
0.5805936849997766 0.00026964115725812773 0.0
0.6005808855766794 0.00028111508212232974 0.0
0.6205661978443141 0.00029227694121474823 0.0
0.6405496907248548 0.0003030910596868623 0.0
0.6605314359731401 0.00031352322543289106 0.0
0.680511508094104 0.00032354074319282356 0.0
0.7004899842514609 0.00033311248674479875 0.0
0.7204669441680194 0.00034220894902321444 0.0
0.7404424700180066 0.00035080229000680215 0.0
0.7604166463118076 0.00035886638222900957 0.0
0.7803895597735265 0.0003663768537713633 0.0
0.8003612992117951 0.0003733111286090713 0.0
0.8203319553842613 0.00037964846418689704 0.0
0.8403016208562025 0.00038536998611233175 0.0
0.8602703898537188 0.00039045871986226045 0.0
0.8802383581119672 0.0003948996194086759 0.0
0.9002056227189104 0.0003986795926784885 0.0
0.9201722819550593 0.0004017875237721457 0.0
0.940138435129693 0.0004042142918755379 0.0
0.960104182414049 0.0004059527868095718 0.0
0.9800696246719828 0.0004069979211717615 0.0
1.000034863288617 0.00040734663903426414 0.0
1.0199999999974434 0.0004069979211728906 0.0
1.0399651367062919 0.0004059527868118158 0.0
1.0599303753230145 0.00040421429187887514 0.0
1.0798958175810576 0.00040178752377654673 0.0
1.0998615648655237 0.00039867959268391685 0.0
1.119827718040267 0.0003948996194150889 0.0
1.139794377276525 0.00039045871986960945 0.0
1.1597616418835774 0.00038536998612056264 0.0
1.1797296101419334 0.00037964846419595035 0.0
1.1996983791395581 0.000373311128618882 0.0
1.2196680446116075 0.0003663768537818632 0.0
1.2396387007841807 0.00035886638224012774 0.0
1.2596104402225572 0.00035080229001846404 0.0
1.2795833536843841 0.0003422089490353432 0.0
1.2995575299782924 0.0003331124867573163 0.0
1.3195330558283862 0.00032354074320565065 0.0
1.3395100157450524 0.00031352322544594713 0.0
1.3594884919025167 0.0003030910597000683 0.0
1.3794685640235882 0.00029227694122802554 0.0
1.39945030927198 0.000281115082135602 0.0
1.4194338021526285 0.00026964115727131955 0.0
1.4394191144203707 0.00025789224838396803 0.0
1.459406314997382 0.0002459067867192135 0.0
1.4793954698997067 0.00023372449424086467 0.0
1.4993866421732516 0.00022138632366911653 0.0
1.519379891839543 0.0002089343975345611 0.0
1.539375275851594 0.00019641194645289838 0.0
1.5593728480601592 0.000183863246831158 0.0
1.5793726591906787 0.0001713335582217648 0.0
1.5993747568311611 0.00015886906054604196 0.0
1.6193791854312825 0.0001465167914136369 0.0
1.6393859863129197 0.00013432458376898962 0.0
1.6593951976923595 0.00012234100410023546 0.0
1.679406854714365 0.00011061529144993797 0.0
1.699420989498319 9.919729747069016e-05 0.0
1.719437631196599 8.813742777202265e-05 0.0
1.73945680606536 7.7486584808097e-05 0.0
1.759478537547851 6.729611255846117e-05 0.0
1.7795028463704239 5.761774325660672e-05 0.0
1.7995297506513253 4.8503546423304356e-05 0.0
1.8195592660223996 4.000588046361875e-05 0.0
1.8395914057637677 3.2177347088214276e-05 0.0
1.859626180951586 2.5070748820988776e-05 0.0
1.879663600618933 1.873904985631463e-05 0.0
1.8997036719298932 1.3235340530158475e-05 0.0
1.9197464003668674 8.612805670175875e-06 0.0
1.9397917899311614 4.924697090498891e-06 0.0
1.959839843356873 2.224310497422224e-06 0.0
1.9798905623381 5.649670725258751e-07 0.0

CELLS 100 300
2 0 2
2 2 3
2 3 4
2 4 5
2 5 6
2 6 7
2 7 8
2 8 9
2 9 10
2 10 11
2 11 12
2 12 13
2 13 14
2 14 15
2 15 16
2 16 17
2 17 18
2 18 19
2 19 20
2 20 21
2 21 22
2 22 23
2 23 24
2 24 25
2 25 26
2 26 27
2 27 28
2 28 29
2 29 30
2 30 31
2 31 32
2 32 33
2 33 34
2 34 35
2 35 36
2 36 37
2 37 38
2 38 39
2 39 40
2 40 41
2 41 42
2 42 43
2 43 44
2 44 45
2 45 46
2 46 47
2 47 48
2 48 49
2 49 50
2 50 51
2 51 52
2 52 53
2 53 54
2 54 55
2 55 56
2 56 57
2 57 58
2 58 59
2 59 60
2 60 61
2 61 62
2 62 63
2 63 64
2 64 65
2 65 66
2 66 67
2 67 68
2 68 69
2 69 70
2 70 71
2 71 72
2 72 73
2 73 74
2 74 75
2 75 76
2 76 77
2 77 78
2 78 79
2 79 80
2 80 81
2 81 82
2 82 83
2 83 84
2 84 85
2 85 86
2 86 87
2 87 88
2 88 89
2 89 90
2 90 91
2 91 92
2 92 93
2 93 94
2 94 95
2 95 96
2 96 97
2 97 98
2 98 99
2 99 100
2 100 1

CELL_TYPES 100
3
3
3
3
3
3
3
3
3
3
3
3
3
3
3
3
3
3
3
3
3
3
3
3
3
3
3
3
3
3
3
3
3
3
3
3
3
3
3
3
3
3
3
3
3
3
3
3
3
3
3
3
3
3
3
3
3
3
3
3
3
3
3
3
3
3
3
3
3
3
3
3
3
3
3
3
3
3
3
3
3
3
3
3
3
3
3
3
3
3
3
3
3
3
3
3
3
3
3
3

POINT_DATA 101
SCALARS MODE1_224.6674_Hz float 1
LOOKUP_TABLE default
0.009839986425673712
0.0
9.918014452165108e-05
0.00984773101890709
0.01923125756804173
0.028156174108346914
0.036625115811995256
0.04464086832169539
0.05220633260855651
0.05932455773785581
0.06599878065282873
0.07223246627140016
0.0780293466223999
0.08339345874816122
0.08832918136440242
0.09284127036454158
0.09693489330653715
0.1006156630591818
0.10388967082203092
0.10676351877379099
0.10924435264962322
0.11133989460088553
0.1130584767524032
0.11440907594405157
0.11540135022666352
0.11604567777848329
0.11635319901867187
0.11633586281913459
0.11600647785461882
0.11537877028068445
0.11446744908359988
0.11328828059331027
0.11185817376935527
0.1101952779246214
0.10831909448671845
0.10625060412339346
0.1040124099434102
0.10162889633141109
0.09912640100617362
0.09653339472872684
0.09388065825194664
0.09120143905313052
0.08853156063396117
0.08590944452592014
0.08337599020785517
0.08097424305393883
0.07874876974297165
0.07674466192433452
0.07500611259531875
0.07357456543914777
0.07248652832715774
0.07177125602346124
0.07144861109297548
0.0715274591665484
0.07200490559309085
0.07286653094130159
0.07408757674419197
0.07563484445809539
0.07746896438320575
0.0795466895133747
0.0818229486118914
0.08425250682316024
0.08679118850547873
0.0893966923627198
0.09202906909452234
0.09465094384422923
0.09722756034503739
0.09972671012242305
0.10211859462184507
0.10437565403648759
0.10647238523385957
0.10838516268797674
0.1100920703434043
0.1115727483279259
0.11280825586717523
0.11378095020178221
0.11447438043331021
0.1148731947905329
0.11496305964658836
0.11473058861955117
0.11416328018151412
0.11324946233889537
0.1119782431011355
0.11033946561003322
0.10832366694849166
0.10592203978109783
0.10312639609800055
0.09992913243800174
0.0963231960575093
0.09230205159027531
0.0878596478101663
0.08299038416712497
0.07768907681659518
0.0719509239068133
0.0657714699290416
0.05914656897777683
0.0520723468227977
0.04454516179784064
0.036561564791962646
0.028118259694848737
0.019212071430569036

