# vtk DataFile Version 2.0
mesh vtk view
ASCII
DATASET UNSTRUCTURED_GRID
POINTS 101 double
0.0002802611526210897 0.0 0.0
2.0 0.0 0.0
0.0199999999999621 -2.824835362398487e-06 0.0
0.03971973884732499 -1.1121552486222022e-05 0.0
0.05945281169069126 -2.4623485450564473e-05 0.0
0.07919921678479494 -4.3064028347552956e-05 0.0
0.09895894965646884 -6.6176702645746e-05 0.0
0.11873200183523512 -9.369524927452023e-05 0.0
0.13851835965060685 -0.00012535374409564096 0.0
0.1583180030960497 -0.00016088673542930342 0.0
0.17813090475955368 -0.00020002940230367047 0.0
0.19795702882070518 -0.00024251773209928084 0.0
0.2177963301141055 -0.0002880887162628449 0.0
0.23764875325897183 -0.00033648056276905646 0.0
0.25751423185468414 -0.0003874329240140638 0.0
0.27739268774203224 -0.0004406871388304325 0.0
0.29728403032978395 -0.0004959864873204823 0.0
0.3171881559861863 -0.0005530764572134388 0.0
0.33710494749498593 -0.0006117050204616802 0.0
0.35703427357541984 -0.0006716229188022651 0.0
0.3769759884655951 -0.0007325839570224077 0.0
0.39692993156859774 -0.0007943453026814499 0.0
0.41689592716060603 -0.000856667791057224 0.0
0.4368737841601991 -0.0009193162341015209 0.0
0.4568632959579834 -0.0009820597322077562 0.0
0.47686424030558144 -0.0010446719876138267 0.0
0.49687637926294476 -0.0011069316182846132 0.0
0.5168994592028839 -0.0011686224711416372 0.0
0.5369332108716194 -0.001229533933531966 0.0
0.5569773495040868 -0.0012894612418546398 0.0
0.5770315749926478 -0.0013482057862906369 0.0
0.5970955721077822 -0.0014055754106116467 0.0
0.6171690107692589 -0.001461384706073739 0.0
0.6372515463662053 -0.0015154552984343094 0.0
0.6573428201244288 -0.001567616127164453 0.0
0.6774424595192593 -0.0016177037159641153 0.0
0.6975500787321234 -0.0016655624337239914 0.0
0.7176652791489809 -0.0017110447451160696 0.0
0.7377876498986946 -0.001754011450034008 0.0
0.7579167684293397 -0.0017943319111450452 0.0
0.7780522011203949 -0.0018318842688568138 0.0
0.7981935039287013 -0.0018665556430453537 0.0
0.8183402230660201 -0.0018982423209344824 0.0
0.8384918957059635 -0.001926849930561656 0.0
0.8586480507180323 -0.0019522935993112995 0.0
0.8788082094264408 -0.0019744980970433767 0.0
0.898971886391374 -0.0019933979633924397 0.0
0.9191385902102784 -0.0020089376188607254 0.0
0.9393078243367601 -0.0020210714593776867 0.0
0.9594790879146302 -0.002029763934047856 0.0
0.979651876624611 -0.0020349896058588046 0.0
0.9998256835412211 -0.0020367331951713177 0.0
1.0199999999972733 -0.0020349896058644503 0.0
1.0401743164533495 -0.002029763934059076 0.0
1.0603481233700527 -0.002021071459394373 0.0
1.080520912080149 -0.002008937618882731 0.0
1.1006921756581378 -0.0019933979634195816 0.0
1.12086140978474 -0.0019744980970754417 0.0
1.141028113603766 -0.0019522935993480444 0.0
1.1611917905688227 -0.0019268499306028103 0.0
1.1813519492773552 -0.001898242320979749 0.0
1.20150810428955 -0.0018665556430944074 0.0
1.2216597769296205 -0.0018318842689093134 0.0
1.2418064960670663 -0.001794331911200636 0.0
1.2619477988755017 -0.0017540114500923176 0.0
1.2820832315666864 -0.0017110447451767134 0.0
1.3022123500974612 -0.0016655624337865791 0.0
1.3223347208473044 -0.0016177037160282509 0.0
1.3424499212642926 -0.0015676161272297335 0.0
1.3625575404772876 -0.0015154552985003394 0.0
1.3826571798722487 -0.0014613847061401258 0.0
1.4027484536306014 -0.001405575410678008 0.0
1.4228309892276778 -0.0013482057863565956 0.0
1.4429044278892837 -0.0012894612419198383 0.0
1.4629684250045467 -0.0012295339335960656 0.0
1.4830226504932342 -0.0011686224712043217 0.0
1.503066789125828 -0.0011069316183455811 0.0
1.523100540794689 -0.001044671987672804 0.0
1.5431236207347527 -0.0009820597322644903 0.0
1.5631357596922384 -0.0009193162341557887 0.0
1.5831367040399584 -0.0008566677911088227 0.0
1.6031262158378634 -0.0007943453027302086 0.0
1.6231040728375759 -0.0007325839570681835 0.0
1.6430700684297013 -0.000671622918844947 0.0
1.6630240115328208 -0.0006117050205011764 0.0
1.682965726423111 -0.0005530764572496891 0.0
1.7028950525036595 -0.00049598648735345 0.0
1.7228118440125708 -0.00044068713886011264 0.0
1.742715969669085 -0.0003874329240404845 0.0
1.7626073122569463 -0.0003364805627923054 0.0
1.782485768144401 -0.0002880887162830332 0.0
1.8023512467402059 -0.00024251773211652141 0.0
1.8222036698851525 -0.00020002940231809345 0.0
1.8420429711786297 -0.00016088673544107117 0.0
1.8618690952398567 -0.0001253537441049437 0.0
1.8816819969034337 -9.369524928157302e-05 0.0
1.9014816403489492 -6.617670265079228e-05 0.0
1.9212679981643972 -4.306402835087931e-05 0.0
1.9410410503432451 -2.462348545249442e-05 0.0
1.9608007832149998 -1.1121552487111102e-05 0.0
1.9805471883091816 -2.8248353626293715e-06 0.0

CELLS 100 300
2 0 2
2 2 3
2 3 4
2 4 5
2 5 6
2 6 7
2 7 8
2 8 9
2 9 10
2 10 11
2 11 12
2 12 13
2 13 14
2 14 15
2 15 16
2 16 17
2 17 18
2 18 19
2 19 20
2 20 21
2 21 22
2 22 23
2 23 24
2 24 25
2 25 26
2 26 27
2 27 28
2 28 29
2 29 30
2 30 31
2 31 32
2 32 33
2 33 34
2 34 35
2 35 36
2 36 37
2 37 38
2 38 39
2 39 40
2 40 41
2 41 42
2 42 43
2 43 44
2 44 45
2 45 46
2 46 47
2 47 48
2 48 49
2 49 50
2 50 51
2 51 52
2 52 53
2 53 54
2 54 55
2 55 56
2 56 57
2 57 58
2 58 59
2 59 60
2 60 61
2 61 62
2 62 63
2 63 64
2 64 65
2 65 66
2 66 67
2 67 68
2 68 69
2 69 70
2 70 71
2 71 72
2 72 73
2 73 74
2 74 75
2 75 76
2 76 77
2 77 78
2 78 79
2 79 80
2 80 81
2 81 82
2 82 83
2 83 84
2 84 85
2 85 86
2 86 87
2 87 88
2 88 89
2 89 90
2 90 91
2 91 92
2 92 93
2 93 94
2 94 95
2 95 96
2 96 97
2 97 98
2 98 99
2 99 100
2 100 1

CELL_TYPES 100
3
3
3
3
3
3
3
3
3
3
3
3
3
3
3
3
3
3
3
3
3
3
3
3
3
3
3
3
3
3
3
3
3
3
3
3
3
3
3
3
3
3
3
3
3
3
3
3
3
3
3
3
3
3
3
3
3
3
3
3
3
3
3
3
3
3
3
3
3
3
3
3
3
3
3
3
3
3
3
3
3
3
3
3
3
3
3
3
3
3
3
3
3
3
3
3
3
3
3
3

POINT_DATA 101
SCALARS MODE1_224.6674_Hz float 1
LOOKUP_TABLE default
0.009839986425673712
0.0
9.918014452165108e-05
0.00984773101890709
0.01923125756804173
0.028156174108346914
0.036625115811995256
0.04464086832169539
0.05220633260855651
0.05932455773785581
0.06599878065282873
0.07223246627140016
0.0780293466223999
0.08339345874816122
0.08832918136440242
0.09284127036454158
0.09693489330653715
0.1006156630591818
0.10388967082203092
0.10676351877379099
0.10924435264962322
0.11133989460088553
0.1130584767524032
0.11440907594405157
0.11540135022666352
0.11604567777848329
0.11635319901867187
0.11633586281913459
0.11600647785461882
0.11537877028068445
0.11446744908359988
0.11328828059331027
0.11185817376935527
0.1101952779246214
0.10831909448671845
0.10625060412339346
0.1040124099434102
0.10162889633141109
0.09912640100617362
0.09653339472872684
0.09388065825194664
0.09120143905313052
0.08853156063396117
0.08590944452592014
0.08337599020785517
0.08097424305393883
0.07874876974297165
0.07674466192433452
0.07500611259531875
0.07357456543914777
0.07248652832715774
0.07177125602346124
0.07144861109297548
0.0715274591665484
0.07200490559309085
0.07286653094130159
0.07408757674419197
0.07563484445809539
0.07746896438320575
0.0795466895133747
0.0818229486118914
0.08425250682316024
0.08679118850547873
0.0893966923627198
0.09202906909452234
0.09465094384422923
0.09722756034503739
0.09972671012242305
0.10211859462184507
0.10437565403648759
0.10647238523385957
0.10838516268797674
0.1100920703434043
0.1115727483279259
0.11280825586717523
0.11378095020178221
0.11447438043331021
0.1148731947905329
0.11496305964658836
0.11473058861955117
0.11416328018151412
0.11324946233889537
0.1119782431011355
0.11033946561003322
0.10832366694849166
0.10592203978109783
0.10312639609800055
0.09992913243800174
0.0963231960575093
0.09230205159027531
0.0878596478101663
0.08299038416712497
0.07768907681659518
0.0719509239068133
0.0657714699290416
0.05914656897777683
0.0520723468227977
0.04454516179784064
0.036561564791962646
0.028118259694848737
0.019212071430569036

