# vtk DataFile Version 2.0
mesh vtk view
ASCII
DATASET UNSTRUCTURED_GRID
POINTS 101 double
-0.001513410224153886 0.0 0.0
2.0 0.0 0.0
0.0199999999999621 1.5254110956951843e-05 0.0
0.04151341022396207 6.005638342559897e-05 0.0
0.06295481686953643 0.00013296682143304828 0.0
0.08432422936110448 0.00023254575307678617 0.0
0.10562167185378046 0.00035735419428702873 0.0
0.12684719008816933 0.0005059543460824097 0.0
0.14800085788493286 0.0006769102181164617 0.0
0.1690827832793444 0.0008687883713182392 0.0
0.19009311429622713 0.0010801587724398214 0.0
0.21103204436581324 0.0013095957533361176 0.0
0.23189981738125487 0.0015556790678193638 0.0
0.25269673239876866 0.0018169950389529065 0.0
0.2734231479816368 0.002092137789675946 0.0
0.29407948618959645 0.0023797105496843377 0.0
0.3146662362153631 0.0026783270315306066 0.0
0.3351839576704166 0.002986612868952572 0.0
0.3556332835225254 0.0033032071104930763 0.0
0.37601492268780795 0.003626763761532235 0.0
0.39632966228048866 0.003955953367921005 0.0
0.4165783695239006 0.004289464634479833 0.0
0.436761993326682 0.004626006071709014 0.0
0.45688156552850606 0.004964307664148218 0.0
0.47693820182009655 0.005303122553921888 0.0
0.4969331023426942 0.005641228733114669 0.0
0.5168675519725583 0.005977430738736917 0.0
0.5367429202965128 0.006310561344164846 0.0
0.5565606612849676 0.006639483241072622 0.0
0.5763223126692708 0.0069630907060150606 0.0
0.5960294950306682 0.007280311245969445 0.0
0.6156839106085676 0.007590107217302899 0.0
0.6352873418362202 0.007891477412798198 0.0
0.6548416496123356 0.008183458611545277 0.0
0.6743487713175562 0.008465127086688054 0.0
0.6938107185850975 0.008735600066206231 0.0
0.7132295748352568 0.008994037142109562 0.0
0.7326074925838527 0.009239641623626784 0.0
0.7519466905350252 0.009471661830183652 0.0
0.7712494504691685 0.009689392320183251 0.0
0.7905181139370976 0.009892175051826803 0.0
0.8097550787718686 0.010079400472444919 0.0
0.8289627954299734 0.010250508533046213 0.0
0.8481437631739054 0.010404989625032952 0.0
0.867300526108361 0.010542385436281027 0.0
0.8864356690825811 0.010662289724034244 0.0
0.9055518134715679 0.010764349002319184 0.0
0.9246516128491101 0.010848263141847926 0.0
0.9437377485657352 0.010913785880639518 0.0
0.9628129252448638 0.010960725243858433 0.0
0.9818798662105942 0.010988943871637555 0.0
1.0009413088606647 0.010998359253925125 0.0
1.0199999999981795 0.01098894387166804 0.0
1.0390586911357091 0.01096072524391902 0.0
1.0581201337858497 0.010913785880729623 0.0
1.0771870747516616 0.010848263141966755 0.0
1.0962622514308622 0.01076434900246575 0.0
1.11534838714755 0.010662289724207396 0.0
1.1344481865251472 0.01054238543647945 0.0
1.1535643309141812 0.010404989625255184 0.0
1.1726994738884389 0.010250508533290653 0.0
1.1918562368229264 0.010079400472709808 0.0
1.2110372045668847 0.0098921750521103 0.0
1.2302449212250097 0.009689392320483443 0.0
1.249481886059798 0.009471661830498523 0.0
1.2687505495277407 0.00923964162395426 0.0
1.2880533094618947 0.008994037142447535 0.0
1.3073925074130746 0.008735600066552563 0.0
1.3267704251616774 0.008465127087040569 0.0
1.3461892814118432 0.00818345861190184 0.0
1.3656512286793925 0.007891477413156685 0.0
1.3851583503846212 0.00759010721766125 0.0
1.404712658160748 0.007280311246325623 0.0
1.424316089388415 0.006963090706367133 0.0
1.4439705049663336 0.00663948324141876 0.0
1.463677687327754 0.006310561344503343 0.0
1.4834393387120868 0.005977430739066143 0.0
1.5032570797005764 0.0056412287334331465 0.0
1.5231324480245718 0.005303122554228253 0.0
1.543066897654482 0.0049643076644412636 0.0
1.5630617981771335 0.004626006071987647 0.0
1.583118434468785 0.00428946463474313 0.0
1.6032380066706775 0.003955953368168194 0.0
1.6234216304735334 0.0036267637617627174 0.0
1.643670337717028 0.0033032071107063554 0.0
1.6639850773097984 0.0029866128691483232 0.0
1.6843667164751772 0.0026783270317086326 0.0
1.7048160423273875 0.0023797105498446105 0.0
1.7253337637825517 0.002092137789818618 0.0
1.7459205138084382 0.0018169950390784506 0.0
1.7665768520165228 0.0015556790679283805 0.0
1.7873032675995097 0.0013095957534292168 0.0
1.8081001826171377 0.0010801587725177055 0.0
1.828967955632699 0.000868788371381785 0.0
1.8499068857024126 0.0006769102181666966 0.0
1.8709172167194292 0.0005059543461204948 0.0
1.8919991421139837 0.00035735419431427864 0.0
1.9131528099109043 0.00023254575309474847 0.0
1.9343783281454654 0.00013296682144347 0.0
1.9556757706383228 6.00563834304e-05 0.0
1.9770451831300788 1.525411095819862e-05 0.0

CELLS 100 300
2 0 2
2 2 3
2 3 4
2 4 5
2 5 6
2 6 7
2 7 8
2 8 9
2 9 10
2 10 11
2 11 12
2 12 13
2 13 14
2 14 15
2 15 16
2 16 17
2 17 18
2 18 19
2 19 20
2 20 21
2 21 22
2 22 23
2 23 24
2 24 25
2 25 26
2 26 27
2 27 28
2 28 29
2 29 30
2 30 31
2 31 32
2 32 33
2 33 34
2 34 35
2 35 36
2 36 37
2 37 38
2 38 39
2 39 40
2 40 41
2 41 42
2 42 43
2 43 44
2 44 45
2 45 46
2 46 47
2 47 48
2 48 49
2 49 50
2 50 51
2 51 52
2 52 53
2 53 54
2 54 55
2 55 56
2 56 57
2 57 58
2 58 59
2 59 60
2 60 61
2 61 62
2 62 63
2 63 64
2 64 65
2 65 66
2 66 67
2 67 68
2 68 69
2 69 70
2 70 71
2 71 72
2 72 73
2 73 74
2 74 75
2 75 76
2 76 77
2 77 78
2 78 79
2 79 80
2 80 81
2 81 82
2 82 83
2 83 84
2 84 85
2 85 86
2 86 87
2 87 88
2 88 89
2 89 90
2 90 91
2 91 92
2 92 93
2 93 94
2 94 95
2 95 96
2 96 97
2 97 98
2 98 99
2 99 100
2 100 1

CELL_TYPES 100
3
3
3
3
3
3
3
3
3
3
3
3
3
3
3
3
3
3
3
3
3
3
3
3
3
3
3
3
3
3
3
3
3
3
3
3
3
3
3
3
3
3
3
3
3
3
3
3
3
3
3
3
3
3
3
3
3
3
3
3
3
3
3
3
3
3
3
3
3
3
3
3
3
3
3
3
3
3
3
3
3
3
3
3
3
3
3
3
3
3
3
3
3
3
3
3
3
3
3
3

POINT_DATA 101
SCALARS MODE1_224.6674_Hz float 1
LOOKUP_TABLE default
0.009839986425673712
0.0
9.918014452165108e-05
0.00984773101890709
0.01923125756804173
0.028156174108346914
0.036625115811995256
0.04464086832169539
0.05220633260855651
0.05932455773785581
0.06599878065282873
0.07223246627140016
0.0780293466223999
0.08339345874816122
0.08832918136440242
0.09284127036454158
0.09693489330653715
0.1006156630591818
0.10388967082203092
0.10676351877379099
0.10924435264962322
0.11133989460088553
0.1130584767524032
0.11440907594405157
0.11540135022666352
0.11604567777848329
0.11635319901867187
0.11633586281913459
0.11600647785461882
0.11537877028068445
0.11446744908359988
0.11328828059331027
0.11185817376935527
0.1101952779246214
0.10831909448671845
0.10625060412339346
0.1040124099434102
0.10162889633141109
0.09912640100617362
0.09653339472872684
0.09388065825194664
0.09120143905313052
0.08853156063396117
0.08590944452592014
0.08337599020785517
0.08097424305393883
0.07874876974297165
0.07674466192433452
0.07500611259531875
0.07357456543914777
0.07248652832715774
0.07177125602346124
0.07144861109297548
0.0715274591665484
0.07200490559309085
0.07286653094130159
0.07408757674419197
0.07563484445809539
0.07746896438320575
0.0795466895133747
0.0818229486118914
0.08425250682316024
0.08679118850547873
0.0893966923627198
0.09202906909452234
0.09465094384422923
0.09722756034503739
0.09972671012242305
0.10211859462184507
0.10437565403648759
0.10647238523385957
0.10838516268797674
0.1100920703434043
0.1115727483279259
0.11280825586717523
0.11378095020178221
0.11447438043331021
0.1148731947905329
0.11496305964658836
0.11473058861955117
0.11416328018151412
0.11324946233889537
0.1119782431011355
0.11033946561003322
0.10832366694849166
0.10592203978109783
0.10312639609800055
0.09992913243800174
0.0963231960575093
0.09230205159027531
0.0878596478101663
0.08299038416712497
0.07768907681659518
0.0719509239068133
0.0657714699290416
0.05914656897777683
0.0520723468227977
0.04454516179784064
0.036561564791962646
0.028118259694848737
0.019212071430569036

