# vtk DataFile Version 2.0
mesh vtk view
ASCII
DATASET UNSTRUCTURED_GRID
POINTS 101 double
0.0007286789968148338 0.0 0.0
2.0 0.0 0.0
0.0199999999999621 -7.344571942236071e-06 0.0
0.039271321003165716 -2.8916036464177275e-05 0.0
0.05857731039597997 -6.402106217146767e-05 0.0
0.07791796364071756 -0.00011196647370363775 0.0
0.09729326910714092 -0.0001720594268789397 0.0
0.11670320477200158 -0.00024360764811375273 0.0
0.13614773509202535 -0.0003259197346486667 0.0
0.15562680805022605 -0.00041830551211618914 0.0
0.1751403523753853 -0.0005200764459895435 0.0
0.19468827493442817 -0.0006305461034581306 0.0
0.21427045829731817 -0.0007490306622833972 0.0
0.23388675847402263 -0.0008748494631995473 0.0
0.253537002822946 -0.0010073256024365664 0.0
0.2732209881301412 -0.0011457865609591253 0.0
0.29293847885838914 -0.0012895648670332546 0.0
0.31268920556512875 -0.0014379987887549416 0.0
0.33247286348810107 -0.0015904330532003695 0.0
0.3522891112973228 -0.0017462195888858906 0.0
0.3721375700118717 -0.0019047182882582611 0.0
0.392017822079772 -0.002065297786971771 0.0
0.41192941061908706 -0.002227336256748784 0.0
0.4318718388181224 -0.002390222208663956 0.0
0.45184456949245516 -0.0025533553037401678 0.0
0.47184702479630325 -0.002716147167795951 0.0
0.49187858608554136 -0.002878022207539996 0.0
0.5119385939294767 -0.0030384184249682583 0.0
0.5320263482682823 -0.0031967882271831134 0.0
0.5521411087127909 -0.0033525992288220654 0.0
0.5722820949831426 -0.0035053350443556576 0.0
0.5924484874825858 -0.0036544960675902838 0.0
0.6126394280025185 -0.003799600235791724 0.0
0.6328540205546728 -0.003940183775929207 0.0
0.6530913323261469 -0.004075801930627581 0.0
0.6733503947527998 -0.004206029661506703 0.0
0.6936302047063401 -0.0043304623276823806 0.0
0.713929725790263 -0.004448716337301784 0.0
0.734247889739612 -0.004560429770088424 0.0
0.7545835979193826 -0.00466526296897712 0.0
0.7749357229162191 -0.004762899099027719 0.0
0.7953031102179094 -0.004853044671917922 0.0
0.8156845799750317 -0.004935430034429657 0.0
0.8360789288389779 -0.005009809819460309 0.0
0.85648493187045 -0.005075963358209382 0.0
0.8769013445124058 -0.005133695052312782 0.0
0.8973269046213256 -0.005182834704820347 0.0
0.9177603345505705 -0.005223237809037889 0.0
0.9382003432795163 -0.005254785794381989 0.0
0.9586456285820718 -0.005277386228524429 0.0
0.9790948792281151 -0.005290972975232895 0.0
0.9995467772113603 -0.0052955063074454295 0.0
1.0199999999970468 -0.005290972975247573 0.0
1.0404532227827594 -0.005277386228553601 0.0
1.0609051207661033 -0.005254785794425372 0.0
1.0813543714122709 -0.005223237809095103 0.0
1.1017996567149566 -0.005182834704890915 0.0
1.1222396654440376 -0.005133695052396152 0.0
1.1426730953734208 -0.005075963358304919 0.0
1.1630986554824831 -0.0050098098195673095 0.0
1.1835150681245843 -0.00493543003454735 0.0
1.2039210711562058 -0.004853044672045462 0.0
1.2243154200203044 -0.004762899099164218 0.0
1.2446968897775803 -0.004665262969121657 0.0
1.2650642770794276 -0.004560429770240028 0.0
1.2854164020764227 -0.004448716337459457 0.0
1.305752110256353 -0.004330462327845108 0.0
1.3260702742058619 -0.004206029661673455 0.0
1.3463697952899465 -0.0040758019307973094 0.0
1.3666496052436488 -0.003940183776100885 0.0
1.3869086676704627 -0.003799600235964329 0.0
1.4071459794420964 -0.003654496067762823 0.0
1.4273605719944102 -0.003505335044527151 0.0
1.4475515125145009 -0.0033525992289915817 0.0
1.4677179050141 -0.0031967882273497726 0.0
1.4878588912846042 -0.003038418425131238 0.0
1.5079736517292635 -0.0028780222076985125 0.0
1.5280614060682172 -0.002716147167949292 0.0
1.548121413912298 -0.0025533553038876765 0.0
1.5681529752016776 -0.0023902222088050522 0.0
1.5881554305056647 -0.00222733625688294 0.0
1.608128161180133 -0.0020652977870985437 0.0
1.6280705893793004 -0.0019047182883772781 0.0
1.6479821779187431 -0.0017462195889968635 0.0
1.6678624299867688 -0.0015904330533030597 0.0
1.6877108887014391 -0.0014379987888491924 0.0
1.7075271365107798 -0.001289564867118971 0.0
1.7273107944338668 -0.0011457865610362936 0.0
1.7470615211407183 -0.0010073256025052602 0.0
1.7667790118690734 -0.0008748494632599945 0.0
1.7864629971763706 -0.0007490306623358867 0.0
1.8061132415253798 -0.000630546103502956 0.0
1.8257295417021562 -0.0005200764460270433 0.0
1.8453117250651123 -0.00041830551214678527 0.0
1.8648596476242176 -0.0003259197346728538 0.0
1.8843731919494349 -0.00024360764813209 0.0
1.9038522649076906 -0.00017205942689206005 0.0
1.9232967952277706 -0.00011196647371228627 0.0
1.94270673089269 -6.402106217648553e-05 0.0
1.9620820363591691 -2.8916036466488882e-05 0.0
1.9814226896039575 -7.3445719428363705e-06 0.0

CELLS 100 300
2 0 2
2 2 3
2 3 4
2 4 5
2 5 6
2 6 7
2 7 8
2 8 9
2 9 10
2 10 11
2 11 12
2 12 13
2 13 14
2 14 15
2 15 16
2 16 17
2 17 18
2 18 19
2 19 20
2 20 21
2 21 22
2 22 23
2 23 24
2 24 25
2 25 26
2 26 27
2 27 28
2 28 29
2 29 30
2 30 31
2 31 32
2 32 33
2 33 34
2 34 35
2 35 36
2 36 37
2 37 38
2 38 39
2 39 40
2 40 41
2 41 42
2 42 43
2 43 44
2 44 45
2 45 46
2 46 47
2 47 48
2 48 49
2 49 50
2 50 51
2 51 52
2 52 53
2 53 54
2 54 55
2 55 56
2 56 57
2 57 58
2 58 59
2 59 60
2 60 61
2 61 62
2 62 63
2 63 64
2 64 65
2 65 66
2 66 67
2 67 68
2 68 69
2 69 70
2 70 71
2 71 72
2 72 73
2 73 74
2 74 75
2 75 76
2 76 77
2 77 78
2 78 79
2 79 80
2 80 81
2 81 82
2 82 83
2 83 84
2 84 85
2 85 86
2 86 87
2 87 88
2 88 89
2 89 90
2 90 91
2 91 92
2 92 93
2 93 94
2 94 95
2 95 96
2 96 97
2 97 98
2 98 99
2 99 100
2 100 1

CELL_TYPES 100
3
3
3
3
3
3
3
3
3
3
3
3
3
3
3
3
3
3
3
3
3
3
3
3
3
3
3
3
3
3
3
3
3
3
3
3
3
3
3
3
3
3
3
3
3
3
3
3
3
3
3
3
3
3
3
3
3
3
3
3
3
3
3
3
3
3
3
3
3
3
3
3
3
3
3
3
3
3
3
3
3
3
3
3
3
3
3
3
3
3
3
3
3
3
3
3
3
3
3
3

POINT_DATA 101
SCALARS MODE1_224.6674_Hz float 1
LOOKUP_TABLE default
0.009839986425673712
0.0
9.918014452165108e-05
0.00984773101890709
0.01923125756804173
0.028156174108346914
0.036625115811995256
0.04464086832169539
0.05220633260855651
0.05932455773785581
0.06599878065282873
0.07223246627140016
0.0780293466223999
0.08339345874816122
0.08832918136440242
0.09284127036454158
0.09693489330653715
0.1006156630591818
0.10388967082203092
0.10676351877379099
0.10924435264962322
0.11133989460088553
0.1130584767524032
0.11440907594405157
0.11540135022666352
0.11604567777848329
0.11635319901867187
0.11633586281913459
0.11600647785461882
0.11537877028068445
0.11446744908359988
0.11328828059331027
0.11185817376935527
0.1101952779246214
0.10831909448671845
0.10625060412339346
0.1040124099434102
0.10162889633141109
0.09912640100617362
0.09653339472872684
0.09388065825194664
0.09120143905313052
0.08853156063396117
0.08590944452592014
0.08337599020785517
0.08097424305393883
0.07874876974297165
0.07674466192433452
0.07500611259531875
0.07357456543914777
0.07248652832715774
0.07177125602346124
0.07144861109297548
0.0715274591665484
0.07200490559309085
0.07286653094130159
0.07408757674419197
0.07563484445809539
0.07746896438320575
0.0795466895133747
0.0818229486118914
0.08425250682316024
0.08679118850547873
0.0893966923627198
0.09202906909452234
0.09465094384422923
0.09722756034503739
0.09972671012242305
0.10211859462184507
0.10437565403648759
0.10647238523385957
0.10838516268797674
0.1100920703434043
0.1115727483279259
0.11280825586717523
0.11378095020178221
0.11447438043331021
0.1148731947905329
0.11496305964658836
0.11473058861955117
0.11416328018151412
0.11324946233889537
0.1119782431011355
0.11033946561003322
0.10832366694849166
0.10592203978109783
0.10312639609800055
0.09992913243800174
0.0963231960575093
0.09230205159027531
0.0878596478101663
0.08299038416712497
0.07768907681659518
0.0719509239068133
0.0657714699290416
0.05914656897777683
0.0520723468227977
0.04454516179784064
0.036561564791962646
0.028118259694848737
0.019212071430569036

