# vtk DataFile Version 2.0
mesh vtk view
ASCII
DATASET UNSTRUCTURED_GRID
POINTS 101 double
-0.0003923656136695262 0.0 0.0
2.0 0.0 0.0
0.0199999999999621 3.954769507357888e-06 0.0
0.040392365613563894 1.5570173480710854e-05 0.0
0.0607660636327582 3.447287963079032e-05 0.0
0.08112109650091102 6.0289639686574224e-05 0.0
0.10145747048046069 9.264738370404454e-05 0.0
0.12177519743008546 0.00013117334898432852 0.0
0.1420742964884791 0.0001754952417338976 0.0
0.16235479566478522 0.00022524142960102513 0.0
0.18261673333580622 0.00028004116322513905 0.0
0.2028601596501207 0.00033952482493899365 0.0
0.22308513783928652 0.00040332420276798344 0.0
0.24329174543639565 0.00047107278787667976 0.0
0.2634800754022914 0.0005424060936196901 0.0
0.2836502371598688 0.0006169619943626064 0.0
0.3038023575368761 0.0006943810822486762 0.0
0.32393658161777267 0.0007743070400988154 0.0
0.3440530735053132 0.0008563870286463535 0.0
0.3641520169925654 0.0009402720863231726 0.0
0.3842336161461802 0.0010256175398313722 0.0
0.4042980958018363 0.0011120834237540315 0.0
0.4243457019728845 0.0011993349074801154 0.0
0.4443767021733142 0.0012870427277421313 0.0
0.46439138565627586 0.0013748836250908607 0.0
0.48439006356949876 0.0014625407826593594 0.0
0.5043730690290499 0.0015497042655984608 0.0
0.5243407571129948 0.0016360714595982943 0.0
0.544293504776625 0.0017213475069447549 0.0
0.5642317106910308 0.0018052457385964982 0.0
0.5841557950069054 0.0018874881008068942 0.0
0.6040661990455768 0.0019678055748563084 0.0
0.6239633849193693 0.0020459385885032376 0.0
0.6438478350835042 0.002121637417808036 0.0
0.6637200518218516 0.0021946625780302374 0.0
0.6835805566689486 0.002264785202349765 0.0
0.7034298897707985 0.0023317874072135915 0.0
0.7232686091870578 0.002395462643162501 0.0
0.7430972901373186 0.002455616030047615 0.0
0.7629165241942756 0.002512064675603067 0.0
0.7827269184266583 0.002564637976399543 0.0
0.802529094494889 0.002613177900263499 0.0
0.8223236877025025 0.0026575392493082793 0.0
0.8421113460064417 0.0026975899027863225 0.0
0.8618927289894055 0.0027332110390358233 0.0
0.8816685067974934 0.0027642973358607313 0.0
0.9014393590464468 0.0027907571487494195 0.0
0.9212059736998403 0.00281251266640502 0.0
0.9409690459226258 0.0028295000431287653 0.0
0.9607292769134678 0.002841669507667003 0.0
0.9804873727193546 0.0028489854482023308 0.0
1.0002440430360124 0.002851426473239849 0.0
1.0199999999976133 0.0028489854482102346 0.0
1.0397559569592343 0.0028416695076827108 0.0
1.0595126272759765 0.002829500043152126 0.0
1.0792707230819663 0.002812512666435827 0.0
1.0990309540729095 0.002790757148787418 0.0
1.1187940262957938 0.0027642973359056225 0.0
1.138560640949284 0.002733211039087266 0.0
1.1583314931983322 0.0026975899028439383 0.0
1.1781072710065115 0.0026575392493716527 0.0
1.1978886539895661 0.002613177900332174 0.0
1.2176763122935945 0.0025646379764730424 0.0
1.2374709055012951 0.002512064675680894 0.0
1.257273081569613 0.0024556160301292484 0.0
1.2770834758020817 0.002395462643247402 0.0
1.2969027098591237 0.002331787407301214 0.0
1.3167313908094682 0.0022647852024395548 0.0
1.3365701102258118 0.00219466257812163 0.0
1.3564194433277459 0.002121637417900478 0.0
1.3762799481749277 0.002045938588596179 0.0
1.3961521649133588 0.001967805574949214 0.0
1.4160366150775792 0.0018874881008992368 0.0
1.435933800951458 0.0018052457386877763 0.0
1.455844204990217 0.0017213475070344943 0.0
1.4757682893061792 0.0016360714596860527 0.0
1.4957064952206751 0.0015497042656838157 0.0
1.5156592428843967 0.0014625407827419277 0.0
1.535626930968435 0.0013748836251702885 0.0
1.5556099364280798 0.001287042727818106 0.0
1.5756086143413992 0.0011993349075523536 0.0
1.595623297824459 0.0011120834238222937 0.0
1.615654298024989 0.0010256175398954584 0.0
1.6357019041961383 0.0009402720863829273 0.0
1.6557663838518986 0.0008563870287016483 0.0
1.6758479830056188 0.0007743070401495658 0.0
1.6959469264929785 0.0006943810822948311 0.0
1.7160634183806271 0.0006169619944041586 0.0
1.736197642461635 0.000542406093656679 0.0
1.7563497628387559 0.0004710727879092282 0.0
1.7765199245964467 0.000403324202796247 0.0
1.7967082545624449 0.0003395248249631305 0.0
1.816914862159647 0.00028004116324533123 0.0
1.8371398403489057 0.00022524142961749996 0.0
1.8573832666633152 0.00017549524174692143 0.0
1.877645204334432 0.0001311733489942024 0.0
1.8979257035108372 9.264738371110934e-05 0.0
1.9182248025693374 6.028963969123112e-05 0.0
1.9385425295190777 3.4472879633492244e-05 0.0
1.958878903498746 1.5570173481955565e-05 0.0
1.9792339363670182 3.954769507681126e-06 0.0

CELLS 100 300
2 0 2
2 2 3
2 3 4
2 4 5
2 5 6
2 6 7
2 7 8
2 8 9
2 9 10
2 10 11
2 11 12
2 12 13
2 13 14
2 14 15
2 15 16
2 16 17
2 17 18
2 18 19
2 19 20
2 20 21
2 21 22
2 22 23
2 23 24
2 24 25
2 25 26
2 26 27
2 27 28
2 28 29
2 29 30
2 30 31
2 31 32
2 32 33
2 33 34
2 34 35
2 35 36
2 36 37
2 37 38
2 38 39
2 39 40
2 40 41
2 41 42
2 42 43
2 43 44
2 44 45
2 45 46
2 46 47
2 47 48
2 48 49
2 49 50
2 50 51
2 51 52
2 52 53
2 53 54
2 54 55
2 55 56
2 56 57
2 57 58
2 58 59
2 59 60
2 60 61
2 61 62
2 62 63
2 63 64
2 64 65
2 65 66
2 66 67
2 67 68
2 68 69
2 69 70
2 70 71
2 71 72
2 72 73
2 73 74
2 74 75
2 75 76
2 76 77
2 77 78
2 78 79
2 79 80
2 80 81
2 81 82
2 82 83
2 83 84
2 84 85
2 85 86
2 86 87
2 87 88
2 88 89
2 89 90
2 90 91
2 91 92
2 92 93
2 93 94
2 94 95
2 95 96
2 96 97
2 97 98
2 98 99
2 99 100
2 100 1

CELL_TYPES 100
3
3
3
3
3
3
3
3
3
3
3
3
3
3
3
3
3
3
3
3
3
3
3
3
3
3
3
3
3
3
3
3
3
3
3
3
3
3
3
3
3
3
3
3
3
3
3
3
3
3
3
3
3
3
3
3
3
3
3
3
3
3
3
3
3
3
3
3
3
3
3
3
3
3
3
3
3
3
3
3
3
3
3
3
3
3
3
3
3
3
3
3
3
3
3
3
3
3
3
3

POINT_DATA 101
SCALARS MODE1_224.6674_Hz float 1
LOOKUP_TABLE default
0.009839986425673712
0.0
9.918014452165108e-05
0.00984773101890709
0.01923125756804173
0.028156174108346914
0.036625115811995256
0.04464086832169539
0.05220633260855651
0.05932455773785581
0.06599878065282873
0.07223246627140016
0.0780293466223999
0.08339345874816122
0.08832918136440242
0.09284127036454158
0.09693489330653715
0.1006156630591818
0.10388967082203092
0.10676351877379099
0.10924435264962322
0.11133989460088553
0.1130584767524032
0.11440907594405157
0.11540135022666352
0.11604567777848329
0.11635319901867187
0.11633586281913459
0.11600647785461882
0.11537877028068445
0.11446744908359988
0.11328828059331027
0.11185817376935527
0.1101952779246214
0.10831909448671845
0.10625060412339346
0.1040124099434102
0.10162889633141109
0.09912640100617362
0.09653339472872684
0.09388065825194664
0.09120143905313052
0.08853156063396117
0.08590944452592014
0.08337599020785517
0.08097424305393883
0.07874876974297165
0.07674466192433452
0.07500611259531875
0.07357456543914777
0.07248652832715774
0.07177125602346124
0.07144861109297548
0.0715274591665484
0.07200490559309085
0.07286653094130159
0.07408757674419197
0.07563484445809539
0.07746896438320575
0.0795466895133747
0.0818229486118914
0.08425250682316024
0.08679118850547873
0.0893966923627198
0.09202906909452234
0.09465094384422923
0.09722756034503739
0.09972671012242305
0.10211859462184507
0.10437565403648759
0.10647238523385957
0.10838516268797674
0.1100920703434043
0.1115727483279259
0.11280825586717523
0.11378095020178221
0.11447438043331021
0.1148731947905329
0.11496305964658836
0.11473058861955117
0.11416328018151412
0.11324946233889537
0.1119782431011355
0.11033946561003322
0.10832366694849166
0.10592203978109783
0.10312639609800055
0.09992913243800174
0.0963231960575093
0.09230205159027531
0.0878596478101663
0.08299038416712497
0.07768907681659518
0.0719509239068133
0.0657714699290416
0.05914656897777683
0.0520723468227977
0.04454516179784064
0.036561564791962646
0.028118259694848737
0.019212071430569036

