# vtk DataFile Version 2.0
mesh vtk view
ASCII
DATASET UNSTRUCTURED_GRID
POINTS 101 double
0.0006165745357663977 0.0 0.0
2.0 0.0 0.0
0.0199999999999621 -6.214637797276674e-06 0.0
0.039383425464205535 -2.446741546968846e-05 0.0
0.05879618571965779 -5.417166799124187e-05 0.0
0.0782382769267369 -9.474086236461654e-05 0.0
0.0977096892444729 -0.0001455887458206413 0.0
0.11721040403780997 -0.0002061295484039446 0.0
0.13674039123167073 -0.00027577823701041023 0.0
0.15629960681168195 -0.0003539508179444677 0.0
0.17588799047142742 -0.00044006468506807523 0.0
0.19550546340599742 -0.0005335390106184181 0.0
0.21515192625151502 -0.0006337951757782591 0.0
0.23482725717025993 -0.0007402572380919246 0.0
0.25453131008088054 -0.0008523524328309408 0.0
0.2742639130331139 -0.000969511705426952 0.0
0.29402486672623784 -0.0010911702721050616 0.0
0.3138139431703932 -0.0012167682058695658 0.0
0.3336308844898223 -0.0013457510450156972 0.0
0.35347540186684706 -0.001477570421364984 0.0
0.37334717462530254 -0.0016116847054492977 0.0
0.39324584945197844 -0.0017475596658991907 0.0
0.4131710397544668 -0.0018846691403258938 0.0
0.4331223251536416 -0.002022495715023347 0.0
0.4530992511088372 -0.0021605314108570648 0.0
0.4731013286736228 -0.00229827837275042 0.0
0.4931280343798922 -0.00243524956022615 0.0
0.5131788102478285 -0.0025709694365116027 0.0
0.5332530639191166 -0.0027049746537703263 0.0
0.5533501689106148 -0.002836814732080209 0.0
0.5734694649855189 -0.0029660527298394023 0.0
0.593610258638885 -0.0030922659033456243 0.0
0.6137718236942036 -0.0032150463533622275 0.0
0.6339534020075559 -0.003334001656555482 0.0
0.6541542042757174 -0.0034487554797617984 0.0
0.6743734109444147 -0.0035589481751210554 0.0
0.694610173212786 -0.003664237354192783 0.0
0.7148636141299425 -0.003764298439255355 0.0
0.7351328297793827 -0.00385882519007482 0.0
0.7554168905468719 -0.003947530204519101 0.0
0.7757148424672631 -0.004030145391484993 0.0
0.7960257086456074 -0.00410642241469978 0.0
0.8163484907477788 -0.004176133106055863 0.0
0.8366821705557244 -0.004239069847235645 0.0
0.8570257115823456 -0.004295045918484861 0.0
0.8773780607409145 -0.004343895813495431 0.0
0.8977381500638377 -0.00438547551946337 0.0
0.9181048984654975 -0.004419662761493598 0.0
0.9384772135438273 -0.004446357210630913 0.0
0.9588539934152114 -0.004465480654905285 0.0
0.9792341285772391 -0.004476977132889372 0.0
0.9996165037938255 -0.004480813029376901 0.0
1.0199999999971034 -0.004476977132901792 0.0
1.0403834962004068 -0.00446548065492997 0.0
1.0607658714170907 -0.004446357210667622 0.0
1.0811460065792404 -0.0044196627615420096 0.0
1.101522786450752 -0.0043854755195230815 0.0
1.1218951015292131 -0.0043438958135659745 0.0
1.142261849931007 -0.0042950459185657 0.0
1.162621939254068 -0.004239069847326185 0.0
1.182974288412777 -0.004176133106155449 0.0
1.203317829439542 -0.004106422414807698 0.0
1.2236515092476334 -0.004030145391600491 0.0
1.2439742913499519 -0.003947530204641401 0.0
1.2642851575284462 -0.0038588251902031004 0.0
1.2845831094489888 -0.003764298439388771 0.0
1.30486717021663 -0.003664237354330476 0.0
1.3251363858662224 -0.003558948175262154 0.0
1.3453898267835331 -0.0034487554799054153 0.0
1.3656265890520585 -0.003334001656700748 0.0
1.3858457957209094 -0.003215046353508278 0.0
1.4060465979892227 -0.003092265903491619 0.0
1.4262281763027271 -0.002966052729984512 0.0
1.4463897413581965 -0.002836814732223646 0.0
1.4665305350117117 -0.0027049746539113454 0.0
1.4866498310867617 -0.002570969436649509 0.0
1.5067469360784047 -0.0024352495603602795 0.0
1.5268211897498352 -0.00229827837288017 0.0
1.5468719656179117 -0.00216053141098188 0.0
1.5668986713243178 -0.0020224957151427363 0.0
1.5869007488892382 -0.0018846691404394108 0.0
1.6068776748445657 -0.00174755966600646 0.0
1.6268289602438692 -0.0016116847055500042 0.0
1.6467541505464827 -0.0014775704214588844 0.0
1.6666528253732817 -0.0013457510451025888 0.0
1.6865245981318573 -0.0012167682059493164 0.0
1.7063691155089997 -0.0010911702721775906 0.0
1.7261860568285428 -0.0009695117054922482 0.0
1.74597513327281 -0.0008523524328890662 0.0
1.7657360869660417 -0.0007402572381430722 0.0
1.7854686899183783 -0.0006337951758226733 0.0
1.8051727428290862 -0.0005335390106563474 0.0
1.8248480737479051 -0.00044006468509980576 0.0
1.8444945365934917 -0.0003539508179703567 0.0
1.8641120095281274 -0.0002757782370308763 0.0
1.8837003931879346 -0.00020612954841946074 0.0
1.9032596087680054 -0.0001455887458317431 0.0
1.9227895959619272 -9.474086237193453e-05 0.0
1.9422903107553289 -5.4171667995487755e-05 0.0
1.9617617230731268 -2.4467415471644435e-05 0.0
1.9812038142802635 -6.2146377977846206e-06 0.0

CELLS 100 300
2 0 2
2 2 3
2 3 4
2 4 5
2 5 6
2 6 7
2 7 8
2 8 9
2 9 10
2 10 11
2 11 12
2 12 13
2 13 14
2 14 15
2 15 16
2 16 17
2 17 18
2 18 19
2 19 20
2 20 21
2 21 22
2 22 23
2 23 24
2 24 25
2 25 26
2 26 27
2 27 28
2 28 29
2 29 30
2 30 31
2 31 32
2 32 33
2 33 34
2 34 35
2 35 36
2 36 37
2 37 38
2 38 39
2 39 40
2 40 41
2 41 42
2 42 43
2 43 44
2 44 45
2 45 46
2 46 47
2 47 48
2 48 49
2 49 50
2 50 51
2 51 52
2 52 53
2 53 54
2 54 55
2 55 56
2 56 57
2 57 58
2 58 59
2 59 60
2 60 61
2 61 62
2 62 63
2 63 64
2 64 65
2 65 66
2 66 67
2 67 68
2 68 69
2 69 70
2 70 71
2 71 72
2 72 73
2 73 74
2 74 75
2 75 76
2 76 77
2 77 78
2 78 79
2 79 80
2 80 81
2 81 82
2 82 83
2 83 84
2 84 85
2 85 86
2 86 87
2 87 88
2 88 89
2 89 90
2 90 91
2 91 92
2 92 93
2 93 94
2 94 95
2 95 96
2 96 97
2 97 98
2 98 99
2 99 100
2 100 1

CELL_TYPES 100
3
3
3
3
3
3
3
3
3
3
3
3
3
3
3
3
3
3
3
3
3
3
3
3
3
3
3
3
3
3
3
3
3
3
3
3
3
3
3
3
3
3
3
3
3
3
3
3
3
3
3
3
3
3
3
3
3
3
3
3
3
3
3
3
3
3
3
3
3
3
3
3
3
3
3
3
3
3
3
3
3
3
3
3
3
3
3
3
3
3
3
3
3
3
3
3
3
3
3
3

POINT_DATA 101
SCALARS MODE1_224.6674_Hz float 1
LOOKUP_TABLE default
0.009839986425673712
0.0
9.918014452165108e-05
0.00984773101890709
0.01923125756804173
0.028156174108346914
0.036625115811995256
0.04464086832169539
0.05220633260855651
0.05932455773785581
0.06599878065282873
0.07223246627140016
0.0780293466223999
0.08339345874816122
0.08832918136440242
0.09284127036454158
0.09693489330653715
0.1006156630591818
0.10388967082203092
0.10676351877379099
0.10924435264962322
0.11133989460088553
0.1130584767524032
0.11440907594405157
0.11540135022666352
0.11604567777848329
0.11635319901867187
0.11633586281913459
0.11600647785461882
0.11537877028068445
0.11446744908359988
0.11328828059331027
0.11185817376935527
0.1101952779246214
0.10831909448671845
0.10625060412339346
0.1040124099434102
0.10162889633141109
0.09912640100617362
0.09653339472872684
0.09388065825194664
0.09120143905313052
0.08853156063396117
0.08590944452592014
0.08337599020785517
0.08097424305393883
0.07874876974297165
0.07674466192433452
0.07500611259531875
0.07357456543914777
0.07248652832715774
0.07177125602346124
0.07144861109297548
0.0715274591665484
0.07200490559309085
0.07286653094130159
0.07408757674419197
0.07563484445809539
0.07746896438320575
0.0795466895133747
0.0818229486118914
0.08425250682316024
0.08679118850547873
0.0893966923627198
0.09202906909452234
0.09465094384422923
0.09722756034503739
0.09972671012242305
0.10211859462184507
0.10437565403648759
0.10647238523385957
0.10838516268797674
0.1100920703434043
0.1115727483279259
0.11280825586717523
0.11378095020178221
0.11447438043331021
0.1148731947905329
0.11496305964658836
0.11473058861955117
0.11416328018151412
0.11324946233889537
0.1119782431011355
0.11033946561003322
0.10832366694849166
0.10592203978109783
0.10312639609800055
0.09992913243800174
0.0963231960575093
0.09230205159027531
0.0878596478101663
0.08299038416712497
0.07768907681659518
0.0719509239068133
0.0657714699290416
0.05914656897777683
0.0520723468227977
0.04454516179784064
0.036561564791962646
0.028118259694848737
0.019212071430569036

