# vtk DataFile Version 2.0
mesh vtk view
ASCII
DATASET UNSTRUCTURED_GRID
POINTS 101 double
0.00957925718364328 0.0 0.0
2.0 0.0 0.0
0.0199999999999621 9.709864812743864e-05 0.0
0.04957925718350715 0.0003779464334078183 0.0
0.07837494837449421 0.0008268756662502739 0.0
0.1063875252857785 0.0014282340979015068 0.0
0.13361813356392105 0.002166401896412775 0.0
0.16006891755766467 0.0030258144205119637 0.0
0.18574329535037687 0.003990990197420219 0.0
0.21064620413965982 0.005046563512783217 0.0
0.23478431609570027 0.006177321024081075 0.0
0.2581662248875188 0.007368241813308234 0.0
0.2808026031320576 0.00860454030053122 0.0
0.3027063310939888 0.0098717114472708 0.0
0.323892597042969 0.011155577687619687 0.0
0.3443789697589425 0.012442337035690849 0.0
0.3641854437635669 0.013718611830449517 0.0
0.38333445794633064 0.01497149759327421 0.0
0.40185088834592664 0.01618861148973501 0.0
0.4197620159404345 0.017358139905068595 0.0
0.43709747039216185 0.018468884662664827 0.0
0.4538891507843645 0.019510307436523266 0.0
0.47017112447655035 0.02047257193203493 0.0
0.4859795052908027 0.021346583434527104 0.0
0.5013523123242143 0.022124025351694748 0.0
0.5163293107601157 0.0227973924042296 0.0
0.5309518361231667 0.02336002014853248 0.0
0.5452626034896735 0.02380611054623008 0.0
0.5593055032241401 0.024130753327173623 0.0
0.5731253848654378 0.024329942925524397 0.0
0.586767830830613 0.024400590802269403 0.0
0.6002789216407576 0.02434053300189224 0.0
0.6137049944012132 0.02414853282577328 0.0
0.6270923962872588 0.023824278540029345 0.0
0.6404872347961724 0.023368376070740157 0.0
0.6539351265269057 0.02278233667465802 0.0
0.6674809462395082 0.022068559608369447 0.0
0.6811685779277388 0.021230309853280078 0.0
0.6950406696101346 0.020271690987538175 0.0
0.7091383935071078 0.01919761332890959 0.0
0.7235012132246945 0.018013757504483356 0.0
0.7381666595094699 0.016726533633742467 0.0
0.7531701160742376 0.015343036340806327 0.0
0.7685446169206158 0.013870995839370445 0.0
0.7843206565030775 0.012318725359880395 0.0
0.8005260139896927 0.010695065212627869 0.0
0.8171855927783362 0.009009323802611206 0.0
0.8343212763239289 0.007271215932031162 0.0
0.851951801223009 0.00549079874407891 0.0
0.8700926483871725 0.003678405677116754 0.0
0.8887559530173537 0.0018445788113597976 0.0
0.9079504339672102 6.638789967887319e-13 0.0
0.9276813429566944 -0.0018445788100410116 0.0
0.9479504339670193 -0.003678405675816365 0.0
0.9687559530169129 -0.005490798742801993 0.0
0.9900926483864699 -0.007271215930782435 0.0
1.0119518012220594 -0.009009323801395212 0.0
1.0343212763227476 -0.010695065211448692 0.0
1.0571855927769387 -0.012318725358741725 0.0
1.0805260139880979 -0.01387099583827551 0.0
1.1043206565013048 -0.015343036339757823 0.0
1.128544616918687 -0.016726533632742818 0.0
1.1531701160721728 -0.01801375750353438 0.0
1.1781666595072897 -0.019197613328012644 0.0
1.203501213222421 -0.020271690986694242 0.0
1.2291383935047628 -0.02123030985248966 0.0
1.255040669607738 -0.022068559607632567 0.0
1.2811685779253117 -0.0227823366739742 0.0
1.3074809462370718 -0.02336837607010862 0.0
1.3339351265244788 -0.023824278539448924 0.0
1.3604872347937695 -0.024148532825242496 0.0
1.387092396284895 -0.024340533001409304 0.0
1.4137049943989022 -0.024400590801832316 0.0
1.4402789216385115 -0.024329942925130944 0.0
1.4667678308284382 -0.0241307533268215 0.0
1.4931253848633395 -0.023806110545916886 0.0
1.5193055032221232 -0.02336002014825573 0.0
1.5452626034877444 -0.022797392403986736 0.0
1.5709518361213284 -0.02212402535148324 0.0
1.59632931075837 -0.0213465834343444 0.0
1.6213523123225622 -0.020472571931878458 0.0
1.6459795052892432 -0.019510307436390636 0.0
1.6701711244750808 -0.0184688846625537 0.0
1.6938891507829834 -0.017358139904976744 0.0
1.7170974703908692 -0.016188611489660172 0.0
1.73976201593923 -0.01497149759321441 0.0
1.7618508883447939 -0.013718611830402912 0.0
1.7833344579452812 -0.012442337035655483 0.0
1.8041854437626095 -0.011155577687593742 0.0
1.824378969758065 -0.009871711447253335 0.0
1.8438925970421736 -0.0086045403005214 0.0
1.862706331093284 -0.007368241813304712 0.0
1.880802603131456 -0.00617732102408234 0.0
1.89816622488702 -0.005046563512787928 0.0
1.914784316095304 -0.003990990197427099 0.0
1.9306462041393615 -0.0030258144205197305 0.0
1.9457432953501719 -0.002166401896420195 0.0
1.9600689175575414 -0.0014282340979078416 0.0
1.9736181335638678 -0.0008268756662550964 0.0
1.9863875252857885 -0.00037794643341088134 0.0
1.9983749483745676 -9.709864812849475e-05 0.0

CELLS 100 300
2 0 2
2 2 3
2 3 4
2 4 5
2 5 6
2 6 7
2 7 8
2 8 9
2 9 10
2 10 11
2 11 12
2 12 13
2 13 14
2 14 15
2 15 16
2 16 17
2 17 18
2 18 19
2 19 20
2 20 21
2 21 22
2 22 23
2 23 24
2 24 25
2 25 26
2 26 27
2 27 28
2 28 29
2 29 30
2 30 31
2 31 32
2 32 33
2 33 34
2 34 35
2 35 36
2 36 37
2 37 38
2 38 39
2 39 40
2 40 41
2 41 42
2 42 43
2 43 44
2 44 45
2 45 46
2 46 47
2 47 48
2 48 49
2 49 50
2 50 51
2 51 52
2 52 53
2 53 54
2 54 55
2 55 56
2 56 57
2 57 58
2 58 59
2 59 60
2 60 61
2 61 62
2 62 63
2 63 64
2 64 65
2 65 66
2 66 67
2 67 68
2 68 69
2 69 70
2 70 71
2 71 72
2 72 73
2 73 74
2 74 75
2 75 76
2 76 77
2 77 78
2 78 79
2 79 80
2 80 81
2 81 82
2 82 83
2 83 84
2 84 85
2 85 86
2 86 87
2 87 88
2 88 89
2 89 90
2 90 91
2 91 92
2 92 93
2 93 94
2 94 95
2 95 96
2 96 97
2 97 98
2 98 99
2 99 100
2 100 1

CELL_TYPES 100
3
3
3
3
3
3
3
3
3
3
3
3
3
3
3
3
3
3
3
3
3
3
3
3
3
3
3
3
3
3
3
3
3
3
3
3
3
3
3
3
3
3
3
3
3
3
3
3
3
3
3
3
3
3
3
3
3
3
3
3
3
3
3
3
3
3
3
3
3
3
3
3
3
3
3
3
3
3
3
3
3
3
3
3
3
3
3
3
3
3
3
3
3
3
3
3
3
3
3
3

POINT_DATA 101
SCALARS MODE2_619.3044_Hz float 1
LOOKUP_TABLE default
0.026678326394251408
0.0
0.00027042069938445454
0.02669908300799135
0.05122620198059031
0.0735970870188794
0.09382103666871622
0.11191006164386384
0.12787948854937414
0.1417486829959544
0.15354173192876894
0.16328807272747556
0.17102307352285254
0.17678857506277895
0.18063340979499545
0.18261392092327147
0.18279451462093704
0.18124829451167088
0.1780578524601362
0.17331632962096333
0.16712892693404371
0.1596151531053246
0.1509122830652464
0.1411808183798074
0.1306132909667855
0.1194486805475529
0.10799616053170648
0.09667354918822064
0.08606517552255694
0.07699038186627889
0.07052139906996296
0.06779307673419194
0.06950141315773865
0.07546310527554023
0.08478647049388952
0.09641173806823972
0.10945160536275443
0.1232537727216953
0.13735162014846516
0.1514044560584662
0.16515386844508056
0.1783958959139839
0.19096401355272147
0.20271881058131203
0.21354169713991591
0.22333103645467836
0.23199975169910905
0.23947384093247262
0.24569145754368366
0.25060234552465505
0.2541674979512153
0.2563589555978693
0.2571596933929035
0.2565635628299333
0.254575272935649
0.25121040379506954
0.24649545700115244
0.2404679585089744
0.23317664320750914
0.22468176974532517
0.2150556428734326
0.20438346558902168
0.1927647163133764
0.18031536755703845
0.16717146778711814
0.15349495947737
0.13948320450629575
0.12538466713938304
0.11152460413667803
0.09834571135527329
0.08646546035876494
0.07673032312148696
0.07018092003459094
0.06776358520223785
0.06979752698318221
0.07570959356789336
0.08439972464774602
0.09476895026187446
0.10595814165819621
0.11735092830459838
0.1285076113813851
0.13910468075092958
0.14889365925404777
0.1576754861769326
0.16528493749393947
0.17158112105141782
0.17644159358225697
0.17975864487126475
0.18143689083567074
0.18139166359647785
0.17954788762880722
0.17583924915807303
0.17020753655746107
0.1626020725539293
0.1529791858672218
0.1413016869830732
0.1275383239097795
0.11166320132918309
0.09365515225077523
0.07349705764894668
0.05117512820321649

