# vtk DataFile Version 2.0
mesh vtk view
ASCII
DATASET UNSTRUCTURED_GRID
POINTS 101 double
-0.00016815669157265408 0.0 0.0
2.0 0.0 0.0
0.0199999999999621 1.6949012174390946e-06 0.0
0.04016815669148426 6.672931491733223e-06 0.0
0.06032831298540255 1.4774091270338707e-05 0.0
0.08048046992887233 2.583841700853181e-05 0.0
0.10062463020579675 3.970602158744766e-05 0.0
0.12076079889846868 5.621714956471222e-05 0.0
0.14088898420918836 7.521224645738468e-05 0.0
0.16100919814187337 9.653204125758219e-05 0.0
0.18112145714372205 0.00012001764138220245 0.0
0.2012257827069822 0.0001455106392595687 0.0
0.22132220193089286 0.00017285322975770718 0.0
0.24141074804392104 0.0002018883376614342 0.0
0.26149146088642233 0.00023245975440843862 0.0
0.28156438735392325 0.0002644122832982599 0.0
0.3016295818011787 0.00029759189239228983 0.0
0.3216871064072439 0.0003318458743280637 0.0
0.3417370315018708 0.0003670230122770087 0.0
0.3617794358535169 0.0004029737512813597 0.0
0.3818144069193185 0.00043955037421344526 0.0
0.40184204105742344 0.00047660718160887067 0.0
0.42186244370212506 0.0005140006746343352 0.0
0.4418757295022759 0.0005515897404609134 0.0
0.4618820224235117 0.0005892358393246546 0.0
0.48188145581485964 0.0006268031925682969 0.0
0.5018741724403482 0.0006641589709707689 0.0
0.5218603244762912 0.0007011734826849833 0.0
0.5418400734749564 0.0007377203601191807 0.0
0.5618135902953828 0.000773676745112785 0.0
0.5817810550021528 0.0008089234717743833 0.0
0.6017426567329786 0.0008433452463669892 0.0
0.6216985935359992 0.0008768308236442447 0.0
0.6416490721777379 0.0009092731790605869 0.0
0.6615943079227106 0.0009405696762986732 0.0
0.6815345242857188 0.0009706222295784707 0.0
0.7014699527579068 0.0009993374602343963 0.0
0.7214008325076989 0.0010266268470696433 0.0
0.7413274100577772 0.0010524068700204065 0.0
0.7612499389392969 0.0010765991466870285 0.0
0.7811686793245705 0.0010991305613140899 0.0
0.8010838976394931 0.001119933385827214 0.0
0.8209958661570084 0.0011389453925606911 0.0
0.8409048625729489 0.0011561099583369953 0.0
0.8608111695656144 0.0011713761595867813 0.0
0.8807150743404759 0.0011846988582260279 0.0
0.9006168681614225 0.0011960387780354657 0.0
0.9205168458699863 0.001205362571316437 0.0
0.9404153053940039 0.0012126428756266139 0.0
0.9603125472471886 0.0012178583604287154 0.0
0.9802088740211068 0.0012209937635152845 0.0
1.000104589871082 0.0012220399171027924 0.0
1.0199999999975 0.001220993763518672 0.0
1.0398954101239393 0.0012178583604354474 0.0
1.0597911259740018 0.0012126428756366254 0.0
1.0796874527480271 0.00120536257132964 0.0
1.0995846946013188 0.0011960387780517506 0.0
1.1194831541254424 0.0011846988582452668 0.0
1.1393831318341114 0.0011713761596088283 0.0
1.1592849256551623 0.0011561099583616878 0.0
1.1791888304301261 0.001138945392587851 0.0
1.1990951374228942 0.001119933385856646 0.0
1.2190041338389366 0.0010991305613455896 0.0
1.238916102356552 0.0010765991467203832 0.0
1.2588313206715758 0.0010524068700553922 0.0
1.27875006105695 0.0010266268471060295 0.0
1.2986725899385696 0.000999337460271949 0.0
1.318599167488747 0.000970622229616952 0.0
1.3385300472386388 0.0009405696763378415 0.0
1.3584654757109265 0.000909273179100205 0.0
1.3784056920740346 0.0008768308236840767 0.0
1.3983509278191064 0.000843345246406806 0.0
1.4183014064609454 0.0008089234718139586 0.0
1.4382573432640664 0.0007736767451519042 0.0
1.4582189449949936 0.0007377203601576405 0.0
1.4781864097018642 0.000701173482722594 0.0
1.4981599265223928 0.0006641589710073496 0.0
1.518139675521161 0.0006268031926036833 0.0
1.5381258275572076 0.0005892358393586951 0.0
1.5581185441827994 0.0005515897404934741 0.0
1.5781179775742522 0.0005140006746652944 0.0
1.5981242704955938 0.0004766071816381259 0.0
1.6181375562958513 0.0004395503742409107 0.0
1.6381579589406592 0.00040297375130696883 0.0
1.6581855930788725 0.00036702301230070636 0.0
1.678220564144783 0.0003318458743498139 0.0
1.698262968496539 0.0002975918924120705 0.0
1.718312893591275 0.000264412283316068 0.0
1.7383704181974515 0.00023245975442429101 0.0
1.7584356126448193 0.00020188833767538353 0.0
1.7785085391124316 0.00017285322976982016 0.0
1.7985892519550317 0.00014551063926991305 0.0
1.8186777980681488 0.00012001764139085624 0.0
1.838774217292147 9.653204126464284e-05 0.0
1.8588785428554957 7.521224646296633e-05 0.0
1.8789908018574326 5.6217149568943894e-05 0.0
1.8991110157902078 3.970602159047543e-05 0.0
1.919239201101024 2.5838417010527623e-05 0.0
1.9393753697938003 1.4774091271496675e-05 0.0
1.9595195300708306 6.672931492266671e-06 0.0
1.979671687014406 1.6949012175776254e-06 0.0

CELLS 100 300
2 0 2
2 2 3
2 3 4
2 4 5
2 5 6
2 6 7
2 7 8
2 8 9
2 9 10
2 10 11
2 11 12
2 12 13
2 13 14
2 14 15
2 15 16
2 16 17
2 17 18
2 18 19
2 19 20
2 20 21
2 21 22
2 22 23
2 23 24
2 24 25
2 25 26
2 26 27
2 27 28
2 28 29
2 29 30
2 30 31
2 31 32
2 32 33
2 33 34
2 34 35
2 35 36
2 36 37
2 37 38
2 38 39
2 39 40
2 40 41
2 41 42
2 42 43
2 43 44
2 44 45
2 45 46
2 46 47
2 47 48
2 48 49
2 49 50
2 50 51
2 51 52
2 52 53
2 53 54
2 54 55
2 55 56
2 56 57
2 57 58
2 58 59
2 59 60
2 60 61
2 61 62
2 62 63
2 63 64
2 64 65
2 65 66
2 66 67
2 67 68
2 68 69
2 69 70
2 70 71
2 71 72
2 72 73
2 73 74
2 74 75
2 75 76
2 76 77
2 77 78
2 78 79
2 79 80
2 80 81
2 81 82
2 82 83
2 83 84
2 84 85
2 85 86
2 86 87
2 87 88
2 88 89
2 89 90
2 90 91
2 91 92
2 92 93
2 93 94
2 94 95
2 95 96
2 96 97
2 97 98
2 98 99
2 99 100
2 100 1

CELL_TYPES 100
3
3
3
3
3
3
3
3
3
3
3
3
3
3
3
3
3
3
3
3
3
3
3
3
3
3
3
3
3
3
3
3
3
3
3
3
3
3
3
3
3
3
3
3
3
3
3
3
3
3
3
3
3
3
3
3
3
3
3
3
3
3
3
3
3
3
3
3
3
3
3
3
3
3
3
3
3
3
3
3
3
3
3
3
3
3
3
3
3
3
3
3
3
3
3
3
3
3
3
3

POINT_DATA 101
SCALARS MODE1_224.6674_Hz float 1
LOOKUP_TABLE default
0.009839986425673712
0.0
9.918014452165108e-05
0.00984773101890709
0.01923125756804173
0.028156174108346914
0.036625115811995256
0.04464086832169539
0.05220633260855651
0.05932455773785581
0.06599878065282873
0.07223246627140016
0.0780293466223999
0.08339345874816122
0.08832918136440242
0.09284127036454158
0.09693489330653715
0.1006156630591818
0.10388967082203092
0.10676351877379099
0.10924435264962322
0.11133989460088553
0.1130584767524032
0.11440907594405157
0.11540135022666352
0.11604567777848329
0.11635319901867187
0.11633586281913459
0.11600647785461882
0.11537877028068445
0.11446744908359988
0.11328828059331027
0.11185817376935527
0.1101952779246214
0.10831909448671845
0.10625060412339346
0.1040124099434102
0.10162889633141109
0.09912640100617362
0.09653339472872684
0.09388065825194664
0.09120143905313052
0.08853156063396117
0.08590944452592014
0.08337599020785517
0.08097424305393883
0.07874876974297165
0.07674466192433452
0.07500611259531875
0.07357456543914777
0.07248652832715774
0.07177125602346124
0.07144861109297548
0.0715274591665484
0.07200490559309085
0.07286653094130159
0.07408757674419197
0.07563484445809539
0.07746896438320575
0.0795466895133747
0.0818229486118914
0.08425250682316024
0.08679118850547873
0.0893966923627198
0.09202906909452234
0.09465094384422923
0.09722756034503739
0.09972671012242305
0.10211859462184507
0.10437565403648759
0.10647238523385957
0.10838516268797674
0.1100920703434043
0.1115727483279259
0.11280825586717523
0.11378095020178221
0.11447438043331021
0.1148731947905329
0.11496305964658836
0.11473058861955117
0.11416328018151412
0.11324946233889537
0.1119782431011355
0.11033946561003322
0.10832366694849166
0.10592203978109783
0.10312639609800055
0.09992913243800174
0.0963231960575093
0.09230205159027531
0.0878596478101663
0.08299038416712497
0.07768907681659518
0.0719509239068133
0.0657714699290416
0.05914656897777683
0.0520723468227977
0.04454516179784064
0.036561564791962646
0.028118259694848737
0.019212071430569036

