# vtk DataFile Version 2.0
mesh vtk view
ASCII
DATASET UNSTRUCTURED_GRID
POINTS 101 double
-0.00140130576310545 0.0 0.0
2.0 0.0 0.0
0.0199999999999621 1.4124176811992447e-05 0.0
0.04140130576292225 5.560776243111016e-05 0.0
0.0627359415458586 0.00012311742725282248 0.0
0.08400391607508513 0.00021532014173776496 0.0
0.10520525171644848 0.0003308835132287303 0.0
0.12633999082236094 0.0004684762463726016 0.0
0.1474082017452875 0.0006267687204782054 0.0
0.16840998451788847 0.0008044336771465178 0.0
0.18934547620018505 0.0010001470115183532 0.0
0.210214855894244 0.0012125886604964053 0.0
0.23101834942705804 0.001440443581314226 0.0
0.25175623370253136 0.0016824028138452839 0.0
0.27242884072370227 0.0019371646200703207 0.0
0.2930365612866237 0.0022034356941521647 0.0
0.3135798483475144 0.0024799324366024137 0.0
0.3340592200651522 0.0027653822860671962 0.0
0.3544752625208042 0.003058525102308404 0.0
0.3748286321182837 0.003358114594011329 0.0
0.3951200576670578 0.0036629197851120415 0.0
0.4153503421516942 0.003971726513407253 0.0
0.43552036419130224 0.004283338955286125 0.0
0.45563107919298684 0.0045965811705076095 0.0
0.47568352020371446 0.004910298661038786 0.0
0.49567879846537466 0.005223359938069138 0.0
0.5156181036782075 0.005534658091423071 0.0
0.535502703978161 0.005843112355708191 0.0
0.5553339456341334 0.006147669667659836 0.0
0.5751132524714467 0.0064473062092732045 0.0
0.5948421250282918 0.00674102893145319 0.0
0.6145221394522685 0.00702787705305824 0.0
0.6341549461445352 0.007306923530368702 0.0
0.6537422681594525 0.0075772764921715535 0.0
0.6732858993679858 0.007838080635822272 0.0
0.6927877023934825 0.008088518579820585 0.0
0.7122496063288111 0.008327812168619966 0.0
0.7316736042441732 0.008555223725580355 0.0
0.7510617504952545 0.008770057250170049 0.0
0.7704161578416792 0.008971659555725233 0.0
0.7897389943860537 0.009159421344284078 0.0
0.8090324803441706 0.009332778215226777 0.0
0.8282988846572263 0.009491211604672421 0.0
0.8475405214571591 0.00963424965280829 0.0
0.8667597463964654 0.009761467996556507 0.0
0.8859589528540723 0.009872490485216892 0.0
0.9051405680290557 0.009966989816962209 0.0
0.9243070489341831 0.010044688094303636 0.0
0.9434608783014243 0.010105357296888443 0.0
0.9626045604117242 0.01014881967023929 0.0
0.9817406168614702 0.010174948029294032 0.0
1.0008715822781995 0.010183665975856598 0.0
1.0199999999981229 0.01017494802932226 0.0
1.0391284177180615 0.01014881967029539 0.0
1.0582593831348623 0.010105357296971873 0.0
1.077395439584692 0.010044688094413662 0.0
1.096539121695067 0.009966989817097916 0.0
1.1156929510623743 0.009872490485377219 0.0
1.134859431967561 0.009761467996740231 0.0
1.1540410471425964 0.00963424965301406 0.0
1.1732402536002462 0.009491211604898754 0.0
1.1924594785395906 0.009332778215472045 0.0
1.2117011153395556 0.009159421344546574 0.0
1.2309675196526382 0.008971659556003188 0.0
1.2502610056107795 0.008770057250461597 0.0
1.2695838421551746 0.008555223725883574 0.0
1.2889382495016175 0.008327812168932903 0.0
1.3083263957527138 0.008088518580141263 0.0
1.3277503936680908 0.007838080636148674 0.0
1.3472122976034335 0.0075772764925017035 0.0
1.366714100628946 0.007306923530700635 0.0
1.386257731837495 0.007027877053390047 0.0
1.4058450538524312 0.006741028931782985 0.0
1.4254778605447191 0.006447306209599198 0.0
1.445157874968722 0.006147669667980333 0.0
1.4648867475255967 0.005843112356021613 0.0
1.4846660543629455 0.0055346580917279104 0.0
1.5044972960189584 0.005223359938364025 0.0
1.5243818963189582 0.0049102986613224564 0.0
1.5443212015318417 0.004596581170778948 0.0
1.56431647979356 0.004283338955544117 0.0
1.5843689208043523 0.003971726513651047 0.0
1.6044796358061086 0.0036629197853409205 0.0
1.624649657845794 0.0033581145942247386 0.0
1.6448799423305152 0.003058525102505885 0.0
1.6651713678793805 0.002765382286248448 0.0
1.6855247374769573 0.002479932436767253 0.0
1.7059407799327115 0.002203435694300565 0.0
1.7264201516504598 0.001937164620202424 0.0
1.7469634387114699 0.0016824028139615285 0.0
1.7675711592745151 0.0014404435814151671 0.0
1.7882437662958033 0.0012125886605826083 0.0
1.8089816505713887 0.0010001470115904682 0.0
1.8297851441043196 0.0008044336772053566 0.0
1.8506545237985028 0.0006267687205247191 0.0
1.8715900154809295 0.0004684762464078655 0.0
1.892591798253669 0.0003308835132539617 0.0
1.9136600091767475 0.00021532014175439676 0.0
1.9347947482828267 0.00012311742726247224 0.0
1.955996083924365 5.560776243555556e-05 0.0
1.9772640584537728 1.4124176813146871e-05 0.0

CELLS 100 300
2 0 2
2 2 3
2 3 4
2 4 5
2 5 6
2 6 7
2 7 8
2 8 9
2 9 10
2 10 11
2 11 12
2 12 13
2 13 14
2 14 15
2 15 16
2 16 17
2 17 18
2 18 19
2 19 20
2 20 21
2 21 22
2 22 23
2 23 24
2 24 25
2 25 26
2 26 27
2 27 28
2 28 29
2 29 30
2 30 31
2 31 32
2 32 33
2 33 34
2 34 35
2 35 36
2 36 37
2 37 38
2 38 39
2 39 40
2 40 41
2 41 42
2 42 43
2 43 44
2 44 45
2 45 46
2 46 47
2 47 48
2 48 49
2 49 50
2 50 51
2 51 52
2 52 53
2 53 54
2 54 55
2 55 56
2 56 57
2 57 58
2 58 59
2 59 60
2 60 61
2 61 62
2 62 63
2 63 64
2 64 65
2 65 66
2 66 67
2 67 68
2 68 69
2 69 70
2 70 71
2 71 72
2 72 73
2 73 74
2 74 75
2 75 76
2 76 77
2 77 78
2 78 79
2 79 80
2 80 81
2 81 82
2 82 83
2 83 84
2 84 85
2 85 86
2 86 87
2 87 88
2 88 89
2 89 90
2 90 91
2 91 92
2 92 93
2 93 94
2 94 95
2 95 96
2 96 97
2 97 98
2 98 99
2 99 100
2 100 1

CELL_TYPES 100
3
3
3
3
3
3
3
3
3
3
3
3
3
3
3
3
3
3
3
3
3
3
3
3
3
3
3
3
3
3
3
3
3
3
3
3
3
3
3
3
3
3
3
3
3
3
3
3
3
3
3
3
3
3
3
3
3
3
3
3
3
3
3
3
3
3
3
3
3
3
3
3
3
3
3
3
3
3
3
3
3
3
3
3
3
3
3
3
3
3
3
3
3
3
3
3
3
3
3
3

POINT_DATA 101
SCALARS MODE1_224.6674_Hz float 1
LOOKUP_TABLE default
0.009839986425673712
0.0
9.918014452165108e-05
0.00984773101890709
0.01923125756804173
0.028156174108346914
0.036625115811995256
0.04464086832169539
0.05220633260855651
0.05932455773785581
0.06599878065282873
0.07223246627140016
0.0780293466223999
0.08339345874816122
0.08832918136440242
0.09284127036454158
0.09693489330653715
0.1006156630591818
0.10388967082203092
0.10676351877379099
0.10924435264962322
0.11133989460088553
0.1130584767524032
0.11440907594405157
0.11540135022666352
0.11604567777848329
0.11635319901867187
0.11633586281913459
0.11600647785461882
0.11537877028068445
0.11446744908359988
0.11328828059331027
0.11185817376935527
0.1101952779246214
0.10831909448671845
0.10625060412339346
0.1040124099434102
0.10162889633141109
0.09912640100617362
0.09653339472872684
0.09388065825194664
0.09120143905313052
0.08853156063396117
0.08590944452592014
0.08337599020785517
0.08097424305393883
0.07874876974297165
0.07674466192433452
0.07500611259531875
0.07357456543914777
0.07248652832715774
0.07177125602346124
0.07144861109297548
0.0715274591665484
0.07200490559309085
0.07286653094130159
0.07408757674419197
0.07563484445809539
0.07746896438320575
0.0795466895133747
0.0818229486118914
0.08425250682316024
0.08679118850547873
0.0893966923627198
0.09202906909452234
0.09465094384422923
0.09722756034503739
0.09972671012242305
0.10211859462184507
0.10437565403648759
0.10647238523385957
0.10838516268797674
0.1100920703434043
0.1115727483279259
0.11280825586717523
0.11378095020178221
0.11447438043331021
0.1148731947905329
0.11496305964658836
0.11473058861955117
0.11416328018151412
0.11324946233889537
0.1119782431011355
0.11033946561003322
0.10832366694849166
0.10592203978109783
0.10312639609800055
0.09992913243800174
0.0963231960575093
0.09230205159027531
0.0878596478101663
0.08299038416712497
0.07768907681659518
0.0719509239068133
0.0657714699290416
0.05914656897777683
0.0520723468227977
0.04454516179784064
0.036561564791962646
0.028118259694848737
0.019212071430569036

