# vtk DataFile Version 2.0
mesh vtk view
ASCII
DATASET UNSTRUCTURED_GRID
POINTS 101 double
0.0003923656136695258 0.0 0.0
2.0 0.0 0.0
0.0199999999999621 -3.9547695073578835e-06 0.0
0.03960763438628517 -1.5570173480710837e-05 0.0
0.05923393636701344 -3.4472879630790277e-05 0.0
0.07887890349877559 -6.028963968657416e-05 0.0
0.09854252951913686 -9.264738370404444e-05 0.0
0.11822480256942673 -0.00013117334898432836 0.0
0.13792570351096148 -0.0001754952417338974 0.0
0.15764520433459378 -0.0002252414296010249 0.0
0.1773832666635116 -0.0002800411632251388 0.0
0.19713984034913593 -0.0003395248249389933 0.0
0.21691486215990868 -0.00040332420276798306 0.0
0.23670825456273453 -0.00047107278787667927 0.0
0.2565199245967496 -0.0005424060936196895 0.0
0.27634976283905943 -0.0006169619943626058 0.0
0.29619764246193525 -0.0006943810822486755 0.0
0.31606341838092195 -0.0007743070400988146 0.0
0.33594692649326474 -0.0008563870286463527 0.0
0.3558479830058956 -0.0009402720863231716 0.0
0.37576638385216427 -0.0010256175398313712 0.0
0.3957019041963913 -0.0011120834237540304 0.0
0.4156542980252263 -0.0011993349074801143 0.0
0.43562329782467996 -0.00128704272774213 0.0
0.4556086143416013 -0.0013748836250908592 0.0
0.4756099364282619 -0.001462540782659358 0.0
0.49562693096859395 -0.001549704265598459 0.0
0.5156592428845321 -0.0016360714595982926 0.0
0.5357064952207852 -0.0017213475069447531 0.0
0.5557682893062628 -0.0018052457385964965 0.0
0.5758442049902714 -0.0018874881008068922 0.0
0.5959338009514831 -0.001967805574856306 0.0
0.6160366150775738 -0.0020459385885032355 0.0
0.6361521649133222 -0.002121637417808034 0.0
0.6562799481748582 -0.0021946625780302352 0.0
0.6764194433276445 -0.0022647852023497624 0.0
0.6965701102256776 -0.002331787407213589 0.0
0.7167313908093015 -0.0023954626431624986 0.0
0.7369027098589239 -0.0024556160300476123 0.0
0.7570834758018505 -0.002512064675603064 0.0
0.7772730815693509 -0.0025646379763995405 0.0
0.7974709055010033 -0.002613177900263496 0.0
0.817676312293273 -0.0026575392493082767 0.0
0.8378886539892171 -0.0026975899027863195 0.0
0.8581072710061367 -0.0027332110390358203 0.0
0.878331493197932 -0.0027642973358607287 0.0
0.8985606409488619 -0.002790757148749417 0.0
0.9187940262953515 -0.0028125126664050168 0.0
0.9390309540724492 -0.0028295000431287627 0.0
0.9592707230814906 -0.002841669507667 0.0
0.979512627275487 -0.0028489854482023277 0.0
0.999755956958756 -0.002851426473239846 0.0
1.0199999999972167 -0.0028489854482102316 0.0
1.0402440430357018 -0.0028416695076827077 0.0
1.0604873727190653 -0.002829500043152123 0.0
1.0807292769131795 -0.002812512666435824 0.0
1.1009690459223425 -0.002790757148787415 0.0
1.1212059736995643 -0.00276429733590562 0.0
1.1414393590461798 -0.0027332110390872635 0.0
1.1616685067972379 -0.0026975899028439357 0.0
1.1818927289891625 -0.0026575392493716496 0.0
1.202111346006214 -0.002613177900332171 0.0
1.2223236877022914 -0.00256463797647304 0.0
1.2425290944946947 -0.0025120646756808915 0.0
1.262726918426483 -0.0024556160301292458 0.0
1.2829165241941205 -0.0023954626432474 0.0
1.3030972901371842 -0.002331787407301212 0.0
1.3232686091869437 -0.002264785202439552 0.0
1.3434298897707062 -0.002194662578121628 0.0
1.363580556668878 -0.002121637417900476 0.0
1.3837200518218022 -0.0020459385885961768 0.0
1.403847835083475 -0.001967805574949212 0.0
1.423963384919361 -0.0018874881008992348 0.0
1.4440661990455879 -0.0018052457386877744 0.0
1.464155795006935 -0.0017213475070344925 0.0
1.4842317106910767 -0.001636071459686051 0.0
1.504293504776687 -0.0015497042656838142 0.0
1.5243407571130712 -0.0014625407827419262 0.0
1.544373069029139 -0.0013748836251702872 0.0
1.5643900635695982 -0.0012870427278181048 0.0
1.584391385656385 -0.0011993349075523523 0.0
1.6043767021734308 -0.0011120834238222926 0.0
1.624345701973007 -0.0010256175398954573 0.0
1.6442980958019617 -0.0009402720863829263 0.0
1.6642336161463076 -0.0008563870287016473 0.0
1.6841520169926931 -0.000774307040149565 0.0
1.7040530735054396 -0.0006943810822948304 0.0
1.7239365816178949 -0.0006169619944041579 0.0
1.7438023575369932 -0.0005424060936566785 0.0
1.763650237159978 -0.0004710727879092277 0.0
1.7834800754023934 -0.00040332420279624664 0.0
1.8032917454364992 -0.0003395248249631301 0.0
1.8230851378394033 -0.0002800411632453309 0.0
1.8428601596502503 -0.00022524142961749972 0.0
1.862616733335947 -0.00017549524174692124 0.0
1.882354795664934 -0.00013117334899420227 0.0
1.9020742964886346 -9.264738371110923e-05 0.0
1.9217751974302406 -6.0289639691231055e-05 0.0
1.9414574704806065 -3.44728796334922e-05 0.0
1.9611210965010422 -1.557017348195555e-05 0.0
1.9807660636328757 -3.9547695076811215e-06 0.0

CELLS 100 300
2 0 2
2 2 3
2 3 4
2 4 5
2 5 6
2 6 7
2 7 8
2 8 9
2 9 10
2 10 11
2 11 12
2 12 13
2 13 14
2 14 15
2 15 16
2 16 17
2 17 18
2 18 19
2 19 20
2 20 21
2 21 22
2 22 23
2 23 24
2 24 25
2 25 26
2 26 27
2 27 28
2 28 29
2 29 30
2 30 31
2 31 32
2 32 33
2 33 34
2 34 35
2 35 36
2 36 37
2 37 38
2 38 39
2 39 40
2 40 41
2 41 42
2 42 43
2 43 44
2 44 45
2 45 46
2 46 47
2 47 48
2 48 49
2 49 50
2 50 51
2 51 52
2 52 53
2 53 54
2 54 55
2 55 56
2 56 57
2 57 58
2 58 59
2 59 60
2 60 61
2 61 62
2 62 63
2 63 64
2 64 65
2 65 66
2 66 67
2 67 68
2 68 69
2 69 70
2 70 71
2 71 72
2 72 73
2 73 74
2 74 75
2 75 76
2 76 77
2 77 78
2 78 79
2 79 80
2 80 81
2 81 82
2 82 83
2 83 84
2 84 85
2 85 86
2 86 87
2 87 88
2 88 89
2 89 90
2 90 91
2 91 92
2 92 93
2 93 94
2 94 95
2 95 96
2 96 97
2 97 98
2 98 99
2 99 100
2 100 1

CELL_TYPES 100
3
3
3
3
3
3
3
3
3
3
3
3
3
3
3
3
3
3
3
3
3
3
3
3
3
3
3
3
3
3
3
3
3
3
3
3
3
3
3
3
3
3
3
3
3
3
3
3
3
3
3
3
3
3
3
3
3
3
3
3
3
3
3
3
3
3
3
3
3
3
3
3
3
3
3
3
3
3
3
3
3
3
3
3
3
3
3
3
3
3
3
3
3
3
3
3
3
3
3
3

POINT_DATA 101
SCALARS MODE1_224.6674_Hz float 1
LOOKUP_TABLE default
0.009839986425673712
0.0
9.918014452165108e-05
0.00984773101890709
0.01923125756804173
0.028156174108346914
0.036625115811995256
0.04464086832169539
0.05220633260855651
0.05932455773785581
0.06599878065282873
0.07223246627140016
0.0780293466223999
0.08339345874816122
0.08832918136440242
0.09284127036454158
0.09693489330653715
0.1006156630591818
0.10388967082203092
0.10676351877379099
0.10924435264962322
0.11133989460088553
0.1130584767524032
0.11440907594405157
0.11540135022666352
0.11604567777848329
0.11635319901867187
0.11633586281913459
0.11600647785461882
0.11537877028068445
0.11446744908359988
0.11328828059331027
0.11185817376935527
0.1101952779246214
0.10831909448671845
0.10625060412339346
0.1040124099434102
0.10162889633141109
0.09912640100617362
0.09653339472872684
0.09388065825194664
0.09120143905313052
0.08853156063396117
0.08590944452592014
0.08337599020785517
0.08097424305393883
0.07874876974297165
0.07674466192433452
0.07500611259531875
0.07357456543914777
0.07248652832715774
0.07177125602346124
0.07144861109297548
0.0715274591665484
0.07200490559309085
0.07286653094130159
0.07408757674419197
0.07563484445809539
0.07746896438320575
0.0795466895133747
0.0818229486118914
0.08425250682316024
0.08679118850547873
0.0893966923627198
0.09202906909452234
0.09465094384422923
0.09722756034503739
0.09972671012242305
0.10211859462184507
0.10437565403648759
0.10647238523385957
0.10838516268797674
0.1100920703434043
0.1115727483279259
0.11280825586717523
0.11378095020178221
0.11447438043331021
0.1148731947905329
0.11496305964658836
0.11473058861955117
0.11416328018151412
0.11324946233889537
0.1119782431011355
0.11033946561003322
0.10832366694849166
0.10592203978109783
0.10312639609800055
0.09992913243800174
0.0963231960575093
0.09230205159027531
0.0878596478101663
0.08299038416712497
0.07768907681659518
0.0719509239068133
0.0657714699290416
0.05914656897777683
0.0520723468227977
0.04454516179784064
0.036561564791962646
0.028118259694848737
0.019212071430569036

