# vtk DataFile Version 2.0
mesh vtk view
ASCII
DATASET UNSTRUCTURED_GRID
POINTS 101 double
-0.0006165745357663979 0.0 0.0
2.0 0.0 0.0
0.0199999999999621 6.214637797276675e-06 0.0
0.04061657453564353 2.4467415469688467e-05 0.0
0.061203814280113844 5.4171667991241884e-05 0.0
0.08176172307294971 9.474086236461657e-05 0.0
0.10229031075512465 0.00014558874582064132 0.0
0.12278959596170222 0.00020612954840394464 0.0
0.14325960876776986 0.0002757782370104103 0.0
0.16370039318769705 0.00035395081794446776 0.0
0.1841120095278904 0.0004400646850680753 0.0
0.2044945365932592 0.0005335390106184182 0.0
0.22484807374768018 0.0006337951757782592 0.0
0.24517274282887025 0.0007402572380919248 0.0
0.26546868991816047 0.0008523524328309409 0.0
0.2857360869658143 0.0009695117054269523 0.0
0.30597513327257353 0.0010911702721050618 0.0
0.3261860568283015 0.0012167682058695662 0.0
0.34636911550875565 0.0013457510450156974 0.0
0.3665245981316139 0.0014775704213649845 0.0
0.3866528253730419 0.0016116847054492979 0.0
0.40675415054624914 0.001747559665899191 0.0
0.42682896024364403 0.0018846691403258942 0.0
0.4468776748443526 0.0020224957150233474 0.0
0.46690074888904 0.002160531410857065 0.0
0.48689867132413783 0.0022982783727504203 0.0
0.5068719656177515 0.0024352495602261506 0.0
0.5268211897496984 0.0025709694365116035 0.0
0.5467469360782935 0.002704974653770327 0.0
0.5666498310866788 0.0028368147320802094 0.0
0.586530535011658 0.002966052729839403 0.0
0.6063897413581749 0.0030922659033456247 0.0
0.6262281763027395 0.0032150463533622284 0.0
0.6460465979892704 0.003334001656555483 0.0
0.6658457957209925 0.0034487554797617993 0.0
0.6856265890521783 0.0035589481751210563 0.0
0.7053898267836901 0.003664237354192784 0.0
0.7251363858664168 0.0037642984392553557 0.0
0.7448671702168599 0.0038588251900748207 0.0
0.7645831094492541 0.003947530204519102 0.0
0.7842851575287462 0.0040301453914849935 0.0
0.8039742913502849 0.004106422414699781 0.0
0.8236515092479967 0.004176133106055864 0.0
0.8433178294399344 0.004239069847235646 0.0
0.8629742884131966 0.004295045918484862 0.0
0.8826219392545109 0.004343895813495432 0.0
0.902261849931471 0.0043854755194633705 0.0
0.9218951015296942 0.004419662761493599 0.0
0.9415227864512477 0.0044463572106309135 0.0
0.961146006579747 0.004465480654905286 0.0
0.9807658714176025 0.004476977132889373 0.0
1.0003834962009428 0.004480813029376902 0.0
1.0199999999977265 0.004476977132901794 0.0
1.0396165037945293 0.0044654806549299705 0.0
1.0592341285779512 0.004446357210667623 0.0
1.0788539934159054 0.00441966276154201 0.0
1.0984772135445 0.004385475519523082 0.0
1.118104898466145 0.004343895813565975 0.0
1.1377381500644568 0.004295045918565701 0.0
1.157378060741502 0.004239069847326186 0.0
1.177025711582897 0.004176133106155451 0.0
1.1966821705562383 0.004106422414807699 0.0
1.2163484907482525 0.004030145391600492 0.0
1.236025708646038 0.003947530204641402 0.0
1.2557148424676499 0.0038588251902031013 0.0
1.2754168905472134 0.003764298439388772 0.0
1.295132829779678 0.0036642373543304767 0.0
1.3148636141301895 0.0035589481752621543 0.0
1.334610173212985 0.003448755479905416 0.0
1.3543734109445653 0.003334001656700749 0.0
1.3741542042758206 0.0032150463535082787 0.0
1.3939534020076112 0.0030922659034916195 0.0
1.413771823694213 0.0029660527299845128 0.0
1.4336102586388493 0.0028368147322236463 0.0
1.4534694649854403 0.0027049746539113463 0.0
1.4733501689104942 0.0025709694366495093 0.0
1.4932530639189574 0.00243524956036028 0.0
1.5131788102476327 0.0022982783728801703 0.0
1.5331280343796623 0.0021605314109818803 0.0
1.5531013286733601 0.0020224957151427367 0.0
1.573099251108546 0.0018846691404394112 0.0
1.5931223251533242 0.0017475596660064601 0.0
1.6131710397541268 0.0016116847055500047 0.0
1.6332458494516173 0.0014775704214588846 0.0
1.6533471746249244 0.001345751045102589 0.0
1.6734754018664546 0.0012167682059493166 0.0
1.6936308844894183 0.0010911702721775908 0.0
1.7138139431699793 0.0009695117054922484 0.0
1.7340248667258182 0.0008523524328890664 0.0
1.7542639130326922 0.0007402572381430723 0.0
1.7745313100804618 0.0006337951758226734 0.0
1.7948272571698578 0.0005335390106563475 0.0
1.815151926251145 0.00044006468509980587 0.0
1.8355054634056642 0.00035395081797035677 0.0
1.8558879904711347 0.00027577823703087633 0.0
1.8762996068114315 0.0002061295484194608 0.0
1.8967403912314664 0.00014558874583174312 0.0
1.9172104040376508 9.474086237193454e-05 0.0
1.9377096892443553 5.417166799548777e-05 0.0
1.9582382769266613 2.4467415471644442e-05 0.0
1.9787961857196303 6.214637797784621e-06 0.0

CELLS 100 300
2 0 2
2 2 3
2 3 4
2 4 5
2 5 6
2 6 7
2 7 8
2 8 9
2 9 10
2 10 11
2 11 12
2 12 13
2 13 14
2 14 15
2 15 16
2 16 17
2 17 18
2 18 19
2 19 20
2 20 21
2 21 22
2 22 23
2 23 24
2 24 25
2 25 26
2 26 27
2 27 28
2 28 29
2 29 30
2 30 31
2 31 32
2 32 33
2 33 34
2 34 35
2 35 36
2 36 37
2 37 38
2 38 39
2 39 40
2 40 41
2 41 42
2 42 43
2 43 44
2 44 45
2 45 46
2 46 47
2 47 48
2 48 49
2 49 50
2 50 51
2 51 52
2 52 53
2 53 54
2 54 55
2 55 56
2 56 57
2 57 58
2 58 59
2 59 60
2 60 61
2 61 62
2 62 63
2 63 64
2 64 65
2 65 66
2 66 67
2 67 68
2 68 69
2 69 70
2 70 71
2 71 72
2 72 73
2 73 74
2 74 75
2 75 76
2 76 77
2 77 78
2 78 79
2 79 80
2 80 81
2 81 82
2 82 83
2 83 84
2 84 85
2 85 86
2 86 87
2 87 88
2 88 89
2 89 90
2 90 91
2 91 92
2 92 93
2 93 94
2 94 95
2 95 96
2 96 97
2 97 98
2 98 99
2 99 100
2 100 1

CELL_TYPES 100
3
3
3
3
3
3
3
3
3
3
3
3
3
3
3
3
3
3
3
3
3
3
3
3
3
3
3
3
3
3
3
3
3
3
3
3
3
3
3
3
3
3
3
3
3
3
3
3
3
3
3
3
3
3
3
3
3
3
3
3
3
3
3
3
3
3
3
3
3
3
3
3
3
3
3
3
3
3
3
3
3
3
3
3
3
3
3
3
3
3
3
3
3
3
3
3
3
3
3
3

POINT_DATA 101
SCALARS MODE1_224.6674_Hz float 1
LOOKUP_TABLE default
0.009839986425673712
0.0
9.918014452165108e-05
0.00984773101890709
0.01923125756804173
0.028156174108346914
0.036625115811995256
0.04464086832169539
0.05220633260855651
0.05932455773785581
0.06599878065282873
0.07223246627140016
0.0780293466223999
0.08339345874816122
0.08832918136440242
0.09284127036454158
0.09693489330653715
0.1006156630591818
0.10388967082203092
0.10676351877379099
0.10924435264962322
0.11133989460088553
0.1130584767524032
0.11440907594405157
0.11540135022666352
0.11604567777848329
0.11635319901867187
0.11633586281913459
0.11600647785461882
0.11537877028068445
0.11446744908359988
0.11328828059331027
0.11185817376935527
0.1101952779246214
0.10831909448671845
0.10625060412339346
0.1040124099434102
0.10162889633141109
0.09912640100617362
0.09653339472872684
0.09388065825194664
0.09120143905313052
0.08853156063396117
0.08590944452592014
0.08337599020785517
0.08097424305393883
0.07874876974297165
0.07674466192433452
0.07500611259531875
0.07357456543914777
0.07248652832715774
0.07177125602346124
0.07144861109297548
0.0715274591665484
0.07200490559309085
0.07286653094130159
0.07408757674419197
0.07563484445809539
0.07746896438320575
0.0795466895133747
0.0818229486118914
0.08425250682316024
0.08679118850547873
0.0893966923627198
0.09202906909452234
0.09465094384422923
0.09722756034503739
0.09972671012242305
0.10211859462184507
0.10437565403648759
0.10647238523385957
0.10838516268797674
0.1100920703434043
0.1115727483279259
0.11280825586717523
0.11378095020178221
0.11447438043331021
0.1148731947905329
0.11496305964658836
0.11473058861955117
0.11416328018151412
0.11324946233889537
0.1119782431011355
0.11033946561003322
0.10832366694849166
0.10592203978109783
0.10312639609800055
0.09992913243800174
0.0963231960575093
0.09230205159027531
0.0878596478101663
0.08299038416712497
0.07768907681659518
0.0719509239068133
0.0657714699290416
0.05914656897777683
0.0520723468227977
0.04454516179784064
0.036561564791962646
0.028118259694848737
0.019212071430569036

