# vtk DataFile Version 2.0
mesh vtk view
ASCII
DATASET UNSTRUCTURED_GRID
POINTS 101 double
-0.0012892013020570138 0.0 0.0
2.0 0.0 0.0
0.0199999999999621 1.299424266703305e-05 0.0
0.04128920130188244 5.115914143662134e-05 0.0
0.06251706622218078 0.00011326803307259666 0.0
0.08368360278906578 0.00019809453039874376 0.0
0.1047888315791165 0.00030441283217043185 0.0
0.12583279155655255 0.0004309981466627934 0.0
0.1468155456056421 0.0005766272228399489 0.0
0.16773718575643254 0.0007400789829747963 0.0
0.18859783810414293 0.0009201352505968848 0.0
0.20939766742267474 0.0011155815676566927 0.0
0.23013688147286118 0.0013252080948090875 0.0
0.25081573500629406 0.001547810588737661 0.0
0.27143453346576774 0.0017821914504646949 0.0
0.2919936363836509 0.0020271608386199912 0.0
0.3124934604796657 0.0022815378416742205 0.0
0.3329344824598878 0.00254415170318182 0.0
0.35331724151908295 0.0028138430941237313 0.0
0.37364234154875947 0.003089465426490422 0.0
0.393910453053627 0.003369886202303078 0.0
0.41412231477948774 0.0036539883923346725 0.0
0.4342787350559225 0.003940671838863234 0.0
0.4543805928574677 0.004228854676867 0.0
0.4744288385873324 0.004517474768155682 0.0
0.49442449458805515 0.004805491143023606 0.0
0.5143686553838567 0.005091885444109225 0.0
0.5342624876598092 0.005375663367251535 0.0
0.5541072299832991 0.005655856094247048 0.0
0.5739041922736228 0.005931521712531348 0.0
0.5936547550259156 0.006201746616936934 0.0
0.6133603682959694 0.006465646888813579 0.0
0.63302255045285 0.0067223696479392055 0.0
0.6526428867065693 0.006971094372797828 0.0
0.6722230274184152 0.00721103418495649 0.0
0.6917646862018677 0.007441437093434936 0.0
0.7112696378223652 0.007661587195130367 0.0
0.7307397159044937 0.007870805827533927 0.0
0.7501768104554838 0.008068452670156443 0.0
0.7695828652141898 0.008253926791267213 0.0
0.7889598748350097 0.00842666763674135 0.0
0.8083098819164727 0.008586155958008634 0.0
0.8276349738844793 0.008731914676298625 0.0
0.8469372797404127 0.008863509680583624 0.0
0.8662189666845699 0.008980550556831984 0.0
0.8854822366255635 0.00908269124639954 0.0
0.9047293225865437 0.00916963063160523 0.0
0.9239624850192562 0.009241113046759343 0.0
0.9431840080371133 0.009296928713137366 0.0
0.9623961955785846 0.009336914096620146 0.0
0.9816013675123463 0.009360952186950508 0.0
1.0008018556957343 0.009368972697788068 0.0
1.0199999999980662 0.009360952186976478 0.0
1.0391981443004141 0.009336914096671757 0.0
1.058398632483875 0.009296928713214123 0.0
1.0776038044177225 0.009241113046860568 0.0
1.0968159919592717 0.009169630631730081 0.0
1.1160375149771986 0.00908269124654704 0.0
1.1352706774099746 0.008980550557001012 0.0
1.1545177633710113 0.008863509680772935 0.0
1.1737810333120535 0.008731914676506853 0.0
1.1930627202562545 0.00858615595823428 0.0
1.2123650261122267 0.008426667636982847 0.0
1.2316901180802668 0.008253926791522932 0.0
1.2510401251617609 0.008068452670424667 0.0
1.2704171347826088 0.007870805827812887 0.0
1.2898231895413403 0.00766158719541827 0.0
1.3092602840923533 0.00744143709372996 0.0
1.3287303621745041 0.007211034185256779 0.0
1.3482353137950238 0.006971094373101567 0.0
1.3677769725784996 0.006722369648244584 0.0
1.3873571132903686 0.006465646889118841 0.0
1.4069774495441143 0.006201746617240345 0.0
1.4266396317010235 0.005931521712831261 0.0
1.4463452449711103 0.005655856094541906 0.0
1.4660958077234392 0.005375663367539884 0.0
1.4858927700138045 0.005091885444389677 0.0
1.5057375123373404 0.004805491143294902 0.0
1.5256313446133445 0.00451747476841666 0.0
1.5455755054092015 0.004228854677116632 0.0
1.5655711614099865 0.003940671839100587 0.0
1.5856194071399197 0.0036539883925589627 0.0
1.6057212649415398 0.0033698862025136464 0.0
1.6258776852180545 0.003089465426686759 0.0
1.6460895469440022 0.0028138430943054136 0.0
1.6663576584489623 0.0025441517033485714 0.0
1.6866827584787374 0.002281537841825872 0.0
1.7070655175380356 0.0020271608387565196 0.0
1.7275065395183682 0.00178219145058623 0.0
1.7480063636145018 0.001547810588844606 0.0
1.7685654665325077 0.0013252080949019537 0.0
1.7891842649920968 0.0011155815677359993 0.0
1.8098631185256395 0.0009201352506632305 0.0
1.8306023325759402 0.0007400789830289279 0.0
1.851402161894593 0.0005766272228827415 0.0
1.8722628142424298 0.00043099814669523624 0.0
1.8931844543933545 0.0003044128321936447 0.0
1.914167208442591 0.00019809453041404497 0.0
1.935211168420188 0.00011326803308147442 0.0
1.9563163972104074 5.115914144071111e-05 0.0
1.9774829337774666 1.299424266809512e-05 0.0

CELLS 100 300
2 0 2
2 2 3
2 3 4
2 4 5
2 5 6
2 6 7
2 7 8
2 8 9
2 9 10
2 10 11
2 11 12
2 12 13
2 13 14
2 14 15
2 15 16
2 16 17
2 17 18
2 18 19
2 19 20
2 20 21
2 21 22
2 22 23
2 23 24
2 24 25
2 25 26
2 26 27
2 27 28
2 28 29
2 29 30
2 30 31
2 31 32
2 32 33
2 33 34
2 34 35
2 35 36
2 36 37
2 37 38
2 38 39
2 39 40
2 40 41
2 41 42
2 42 43
2 43 44
2 44 45
2 45 46
2 46 47
2 47 48
2 48 49
2 49 50
2 50 51
2 51 52
2 52 53
2 53 54
2 54 55
2 55 56
2 56 57
2 57 58
2 58 59
2 59 60
2 60 61
2 61 62
2 62 63
2 63 64
2 64 65
2 65 66
2 66 67
2 67 68
2 68 69
2 69 70
2 70 71
2 71 72
2 72 73
2 73 74
2 74 75
2 75 76
2 76 77
2 77 78
2 78 79
2 79 80
2 80 81
2 81 82
2 82 83
2 83 84
2 84 85
2 85 86
2 86 87
2 87 88
2 88 89
2 89 90
2 90 91
2 91 92
2 92 93
2 93 94
2 94 95
2 95 96
2 96 97
2 97 98
2 98 99
2 99 100
2 100 1

CELL_TYPES 100
3
3
3
3
3
3
3
3
3
3
3
3
3
3
3
3
3
3
3
3
3
3
3
3
3
3
3
3
3
3
3
3
3
3
3
3
3
3
3
3
3
3
3
3
3
3
3
3
3
3
3
3
3
3
3
3
3
3
3
3
3
3
3
3
3
3
3
3
3
3
3
3
3
3
3
3
3
3
3
3
3
3
3
3
3
3
3
3
3
3
3
3
3
3
3
3
3
3
3
3

POINT_DATA 101
SCALARS MODE1_224.6674_Hz float 1
LOOKUP_TABLE default
0.009839986425673712
0.0
9.918014452165108e-05
0.00984773101890709
0.01923125756804173
0.028156174108346914
0.036625115811995256
0.04464086832169539
0.05220633260855651
0.05932455773785581
0.06599878065282873
0.07223246627140016
0.0780293466223999
0.08339345874816122
0.08832918136440242
0.09284127036454158
0.09693489330653715
0.1006156630591818
0.10388967082203092
0.10676351877379099
0.10924435264962322
0.11133989460088553
0.1130584767524032
0.11440907594405157
0.11540135022666352
0.11604567777848329
0.11635319901867187
0.11633586281913459
0.11600647785461882
0.11537877028068445
0.11446744908359988
0.11328828059331027
0.11185817376935527
0.1101952779246214
0.10831909448671845
0.10625060412339346
0.1040124099434102
0.10162889633141109
0.09912640100617362
0.09653339472872684
0.09388065825194664
0.09120143905313052
0.08853156063396117
0.08590944452592014
0.08337599020785517
0.08097424305393883
0.07874876974297165
0.07674466192433452
0.07500611259531875
0.07357456543914777
0.07248652832715774
0.07177125602346124
0.07144861109297548
0.0715274591665484
0.07200490559309085
0.07286653094130159
0.07408757674419197
0.07563484445809539
0.07746896438320575
0.0795466895133747
0.0818229486118914
0.08425250682316024
0.08679118850547873
0.0893966923627198
0.09202906909452234
0.09465094384422923
0.09722756034503739
0.09972671012242305
0.10211859462184507
0.10437565403648759
0.10647238523385957
0.10838516268797674
0.1100920703434043
0.1115727483279259
0.11280825586717523
0.11378095020178221
0.11447438043331021
0.1148731947905329
0.11496305964658836
0.11473058861955117
0.11416328018151412
0.11324946233889537
0.1119782431011355
0.11033946561003322
0.10832366694849166
0.10592203978109783
0.10312639609800055
0.09992913243800174
0.0963231960575093
0.09230205159027531
0.0878596478101663
0.08299038416712497
0.07768907681659518
0.0719509239068133
0.0657714699290416
0.05914656897777683
0.0520723468227977
0.04454516179784064
0.036561564791962646
0.028118259694848737
0.019212071430569036

