# vtk DataFile Version 2.0
mesh vtk view
ASCII
DATASET UNSTRUCTURED_GRID
POINTS 101 double
0.0017739365154894973 0.0 0.0
2.0 0.0 0.0
0.0199999999999621 1.7981231134710868e-05 0.0
0.041773936515402794 6.999008026070712e-05 0.0
0.0634027682174059 0.00015312512337968044 0.0
0.08488657875649797 0.0002644877959076866 0.0
0.10622558028945105 0.0004011855363727363 0.0
0.12742016991788732 0.0005603360037985121 0.0
0.14847098062021225 0.0007390722587815223 0.0
0.1693789266922766 0.0009345487986635592 0.0
0.19014524372114805 0.0011439483377927923 0.0
0.21077152312701544 0.0013644892246867106 0.0
0.23125974132042354 0.001593433388987264 0.0
0.25161228353556947 0.0018280947124575564 0.0
0.2718319624149739 0.0020658477199295725 0.0
0.29192203143640455 0.0023041364880908993 0.0
0.3118861932890652 0.0025404836723054674 0.0
0.33172860332286275 0.00277249955431004 0.0
0.3514538682116293 0.002997891016617596 0.0
0.37106703998834234 0.003214470352790482 0.0
0.39057360562750365 0.003420163826419414 0.0
0.4099794723667528 0.0036130198956524583 0.0
0.42929094897636927 0.0037912170244509148 0.0
0.4485147232011833 0.00395307100639391 0.0
0.4676578356147304 0.004097041731795326 0.0
0.48672765013984987 0.004221739334116594 0.0
0.5057318215033302 0.004325929657135646 0.0
0.5246782599044876 0.00440853899004261 0.0
0.5435750931886004 0.004468658023550673 0.0
0.5624306268258303 0.004505544986208224 0.0
0.5812533020045189 0.004518627926346188 0.0
0.600051652154498 0.004507506111461528 0.0
0.6188342582212015 0.00447195052329135 0.0
0.6376097030148661 0.004411903433338769 0.0
0.6563865249609137 0.004327477050137068 0.0
0.6751731715776685 0.004218951236047784 0.0
0.6939779530058806 0.004086770297846196 0.0
0.712808995911061 0.003931538861718534 0.0
0.73167419807442 0.003754016849544108 0.0
0.7505811839812194 0.0035551135794277037 0.0
0.7695372617066509 0.003335881019348771 0.0
0.788549381388969 0.003097506228470829 0.0
0.8076240955675822 0.0028413030260752473 0.0
0.8267675216501973 0.0025687029332167504 0.0
0.845985306758013 0.0022812454370148894 0.0
0.8652825951814127 0.001980567631968125 0.0
0.8846639986607436 0.0016683932967798537 0.0
0.9041335696876576 0.0013465214688946601 0.0
0.9236947780022544 0.0010168145822368358 0.0
0.943350490440015 0.0006811862365031029 0.0
0.9631029542603713 0.00034158866877033304 0.0
0.9829537840658705 1.2294055496087635e-13 0.0
1.0029039523972816 -0.0003415886685261134 0.0
1.0229537840659035 -0.0006811862362622902 0.0
1.0431029542603714 -0.0010168145820003698 0.0
1.0633504904399613 -0.0013465214686634145 0.0
1.0836947780021506 -0.0016683932965546697 0.0
1.1041335696875065 -0.0019805676317497588 0.0
1.124663998660548 -0.0022812454368040243 0.0
1.1452825951811763 -0.0025687029330139846 0.0
1.1659853067577384 -0.0028413030258810797 0.0
1.1867675216498894 -0.003097506228285709 0.0
1.2076240955672448 -0.003335881019173035 0.0
1.228549381388605 -0.003555113579261602 0.0
1.2495372617062652 -0.0037540168493878246 0.0
1.2705811839808163 -0.003931538861572162 0.0
1.291674198074003 -0.004086770297709736 0.0
1.3128089959106328 -0.00421895123592115 0.0
1.3339779530054465 -0.004327477050020117 0.0
1.3551731715772317 -0.004411903433231284 0.0
1.376386524960477 -0.004471950523193057 0.0
1.3976097030144314 -0.004507506111372096 0.0
1.4188342582207722 -0.004518627926265246 0.0
1.4400516521540763 -0.004505544986135363 0.0
1.461253302004106 -0.004468658023485466 0.0
1.4824306268254264 -0.004408538989984611 0.0
1.5035750931882075 -0.0043259296570843965 0.0
1.5246782599041062 -0.00422173933407162 0.0
1.5457318215029614 -0.0040970417317561575 0.0
1.5667276501394929 -0.0039530710063600755 0.0
1.5876578356143864 -0.003791217024421939 0.0
1.608514723200852 -0.0036130198956278977 0.0
1.6292909489760503 -0.003420163826398835 0.0
1.6499794723664452 -0.003214470352773473 0.0
1.670573605627208 -0.002997891016603737 0.0
1.6910670399880585 -0.002772499554298966 0.0
1.7114538682113545 -0.0025404836722968368 0.0
1.731728603322598 -0.00230413648808435 0.0
1.7518861932888132 -0.0020658477199247682 0.0
1.771922031436163 -0.001828094712454322 0.0
1.7918319624147447 -0.0015934333889854454 0.0
1.8116122835353632 -0.0013644892246860586 0.0
1.8312597413202532 -0.0011439483377930265 0.0
1.850771523126882 -0.0009345487986644316 0.0
1.870145243721052 -0.0007390722587827964 0.0
1.889378926692216 -0.0005603360037999503 0.0
1.908470980620187 -0.00040118553637411036 0.0
1.9274201699178912 -0.0002644877959088597 0.0
1.9462255802894766 -0.0001531251233805735 0.0
1.9648865787565413 -6.999008026127435e-05 0.0
1.9834027682174693 -1.7981231134906444e-05 0.0

CELLS 100 300
2 0 2
2 2 3
2 3 4
2 4 5
2 5 6
2 6 7
2 7 8
2 8 9
2 9 10
2 10 11
2 11 12
2 12 13
2 13 14
2 14 15
2 15 16
2 16 17
2 17 18
2 18 19
2 19 20
2 20 21
2 21 22
2 22 23
2 23 24
2 24 25
2 25 26
2 26 27
2 27 28
2 28 29
2 29 30
2 30 31
2 31 32
2 32 33
2 33 34
2 34 35
2 35 36
2 36 37
2 37 38
2 38 39
2 39 40
2 40 41
2 41 42
2 42 43
2 43 44
2 44 45
2 45 46
2 46 47
2 47 48
2 48 49
2 49 50
2 50 51
2 51 52
2 52 53
2 53 54
2 54 55
2 55 56
2 56 57
2 57 58
2 58 59
2 59 60
2 60 61
2 61 62
2 62 63
2 63 64
2 64 65
2 65 66
2 66 67
2 67 68
2 68 69
2 69 70
2 70 71
2 71 72
2 72 73
2 73 74
2 74 75
2 75 76
2 76 77
2 77 78
2 78 79
2 79 80
2 80 81
2 81 82
2 82 83
2 83 84
2 84 85
2 85 86
2 86 87
2 87 88
2 88 89
2 89 90
2 90 91
2 91 92
2 92 93
2 93 94
2 94 95
2 95 96
2 96 97
2 97 98
2 98 99
2 99 100
2 100 1

CELL_TYPES 100
3
3
3
3
3
3
3
3
3
3
3
3
3
3
3
3
3
3
3
3
3
3
3
3
3
3
3
3
3
3
3
3
3
3
3
3
3
3
3
3
3
3
3
3
3
3
3
3
3
3
3
3
3
3
3
3
3
3
3
3
3
3
3
3
3
3
3
3
3
3
3
3
3
3
3
3
3
3
3
3
3
3
3
3
3
3
3
3
3
3
3
3
3
3
3
3
3
3
3
3

POINT_DATA 101
SCALARS MODE2_619.3044_Hz float 1
LOOKUP_TABLE default
0.026678326394251408
0.0
0.00027042069938445454
0.02669908300799135
0.05122620198059031
0.0735970870188794
0.09382103666871622
0.11191006164386384
0.12787948854937414
0.1417486829959544
0.15354173192876894
0.16328807272747556
0.17102307352285254
0.17678857506277895
0.18063340979499545
0.18261392092327147
0.18279451462093704
0.18124829451167088
0.1780578524601362
0.17331632962096333
0.16712892693404371
0.1596151531053246
0.1509122830652464
0.1411808183798074
0.1306132909667855
0.1194486805475529
0.10799616053170648
0.09667354918822064
0.08606517552255694
0.07699038186627889
0.07052139906996296
0.06779307673419194
0.06950141315773865
0.07546310527554023
0.08478647049388952
0.09641173806823972
0.10945160536275443
0.1232537727216953
0.13735162014846516
0.1514044560584662
0.16515386844508056
0.1783958959139839
0.19096401355272147
0.20271881058131203
0.21354169713991591
0.22333103645467836
0.23199975169910905
0.23947384093247262
0.24569145754368366
0.25060234552465505
0.2541674979512153
0.2563589555978693
0.2571596933929035
0.2565635628299333
0.254575272935649
0.25121040379506954
0.24649545700115244
0.2404679585089744
0.23317664320750914
0.22468176974532517
0.2150556428734326
0.20438346558902168
0.1927647163133764
0.18031536755703845
0.16717146778711814
0.15349495947737
0.13948320450629575
0.12538466713938304
0.11152460413667803
0.09834571135527329
0.08646546035876494
0.07673032312148696
0.07018092003459094
0.06776358520223785
0.06979752698318221
0.07570959356789336
0.08439972464774602
0.09476895026187446
0.10595814165819621
0.11735092830459838
0.1285076113813851
0.13910468075092958
0.14889365925404777
0.1576754861769326
0.16528493749393947
0.17158112105141782
0.17644159358225697
0.17975864487126475
0.18143689083567074
0.18139166359647785
0.17954788762880722
0.17583924915807303
0.17020753655746107
0.1626020725539293
0.1529791858672218
0.1413016869830732
0.1275383239097795
0.11166320132918309
0.09365515225077523
0.07349705764894668
0.05117512820321649

