# vtk DataFile Version 2.0
mesh vtk view
ASCII
DATASET UNSTRUCTURED_GRID
POINTS 101 double
-0.004612234940272689 0.0 0.0
2.0 0.0 0.0
0.0199999999999621 -4.6751200950248215e-05 0.0
0.03538776505968105 -0.00018197420867783839 0.0
0.05115280263433363 -0.0003981253207871688 0.0
0.06729489523254119 -0.0006876682693599846 0.0
0.08381349124670288 -0.0010430823945691136 0.0
0.10070755821261493 -0.0014568736098761303 0.0
0.11797545038644121 -0.0019215878728319564 0.0
0.13561479059896306 -0.002429826876525252 0.0
0.15362236632378715 -0.0029742656782612577 0.0
0.1719940398684218 -0.003547671984185445 0.0
0.19072467256545017 -0.004142926811366883 0.0
0.20980806280595368 -0.004753046252389643 0.0
0.2292368977193416 -0.005371204071816885 0.0
0.249002718263419 -0.005990754869036333 0.0
0.26909589744629103 -0.00660525754799421 0.0
0.28950563135820717 -0.0072084988412060985 0.0
0.3102199426472042 -0.007794516643205744 0.0
0.33122569602753965 -0.008357622917255246 0.0
0.35250862536551053 -0.00889242594869047 0.0
0.3740533718432523 -0.009393851728696384 0.0
0.39584353265803934 -0.00985716426357237 0.0
0.4178617196733129 -0.010277984616624158 0.0
0.44008962739787993 -0.010652308502667839 0.0
0.4625081096323596 -0.010976522268703137 0.0
0.4850972640871003 -0.011247417108552673 0.0
0.5078365242438808 -0.011462201374110775 0.0
0.5307047577049772 -0.01161851086123174 0.0
0.5536803702479697 -0.011714416964141373 0.0
0.5767414147831692 -0.01174843260850008 0.0
0.5998657043930129 -0.011719515889799964 0.0
0.6230309286193737 -0.011627071360557501 0.0
0.6462147721556357 -0.011470948926680793 0.0
0.6693950350957021 -0.011251440330356369 0.0
0.6925497538919292 -0.01096927321372423 0.0
0.7156573221783672 -0.0106256027744001 0.0
0.7386966106246883 -0.010222001040468182 0.0
0.7616470849997445 -0.009760443808814674 0.0
0.7844889216418562 -0.009243295306512023 0.0
0.8072031195555243 -0.008673290650306798 0.0
0.8297716083812865 -0.00805351619402415 0.0
0.8521773515166823 -0.007387387867795637 0.0
0.8744044437016729 -0.006678627626363546 0.0
0.8964382024211421 -0.005931238136238708 0.0
0.9182652525200927 -0.00514947584311712 0.0
0.9398736034736223 -0.004337822571627617 0.0
0.9612527188034354 -0.0035009558191261138 0.0
0.9823935771852734 -0.0026437179138157707 0.0
1.003288724846886 -0.0017710842149080662 0.0
1.0239323189137495 -0.0008881305388028653 0.0
1.0443201614193198 -3.1964544289827827e-13 0.0
1.064449723757762 0.0008881305381678943 0.0
1.084320161419536 0.001771084214281953 0.0
1.10393231891411 0.002643717913200959 0.0
1.1232887248473633 0.003500955818524875 0.0
1.1423935771858618 0.004337822571042138 0.0
1.1612527188041275 0.005149475842549369 0.0
1.1798736034744102 0.005931238135690458 0.0
1.1982652525209678 0.006678627625836355 0.0
1.2164382024220932 0.007387387867290801 0.0
1.2344044437026915 0.008053516193542836 0.0
1.2521773515177583 0.008673290649849884 0.0
1.2697716083824084 0.009243295306080158 0.0
1.2872031195566833 0.009760443808408337 0.0
1.3044889216430418 0.010222001040087613 0.0
1.3216470850009467 0.010625602774045307 0.0
1.3386966106258957 0.010969273213394982 0.0
1.3556573221795714 0.011251440330052296 0.0
1.3725497538931204 0.011470948926401329 0.0
1.3893950350968738 0.01162707136030194 0.0
1.4062147721567795 0.01171951588956744 0.0
1.4230309286204843 0.01174843260828963 0.0
1.439865704394084 0.011714416963951934 0.0
1.456741414784198 0.011618510861062201 0.0
1.473680370248952 0.01146220137395998 0.0
1.4907047577059125 0.011247417108419422 0.0
1.507836524244766 0.010976522268586203 0.0
1.5250972640879337 0.010652308502566002 0.0
1.5425081096331388 0.010277984616536189 0.0
1.5600896273986065 0.009857164263497033 0.0
1.5778617196739866 0.009393851728632526 0.0
1.5958435326586617 0.008892425948636965 0.0
1.6140533718438228 0.008357622917211023 0.0
1.6325086253660304 0.007794516643169711 0.0
1.6512256960280092 0.0072084988411773064 0.0
1.6702199426476312 0.00660525754797177 0.0
1.6895056313585846 0.0059907548690193045 0.0
1.7090958974466164 0.005371204071804393 0.0
1.7290027182636976 0.0047530462523812335 0.0
1.7492368977195758 0.0041429268113621544 0.0
1.7698080628061552 0.0035476719841837493 0.0
1.7907246725656325 0.0029742656782618666 0.0
1.8119940398685874 0.0024298268765275202 0.0
1.8336223663239368 0.0019215878728352693 0.0
1.8556147905990972 0.0014568736098798697 0.0
1.877975450386563 0.0010430823945726862 0.0
1.900707558212723 0.0006876682693630346 0.0
1.9238134912467926 0.00039812532078949077 0.0
1.9472948952326115 0.00018197420867931317 0.0
1.9711528026343887 4.675120095075671e-05 0.0

CELLS 100 300
2 0 2
2 2 3
2 3 4
2 4 5
2 5 6
2 6 7
2 7 8
2 8 9
2 9 10
2 10 11
2 11 12
2 12 13
2 13 14
2 14 15
2 15 16
2 16 17
2 17 18
2 18 19
2 19 20
2 20 21
2 21 22
2 22 23
2 23 24
2 24 25
2 25 26
2 26 27
2 27 28
2 28 29
2 29 30
2 30 31
2 31 32
2 32 33
2 33 34
2 34 35
2 35 36
2 36 37
2 37 38
2 38 39
2 39 40
2 40 41
2 41 42
2 42 43
2 43 44
2 44 45
2 45 46
2 46 47
2 47 48
2 48 49
2 49 50
2 50 51
2 51 52
2 52 53
2 53 54
2 54 55
2 55 56
2 56 57
2 57 58
2 58 59
2 59 60
2 60 61
2 61 62
2 62 63
2 63 64
2 64 65
2 65 66
2 66 67
2 67 68
2 68 69
2 69 70
2 70 71
2 71 72
2 72 73
2 73 74
2 74 75
2 75 76
2 76 77
2 77 78
2 78 79
2 79 80
2 80 81
2 81 82
2 82 83
2 83 84
2 84 85
2 85 86
2 86 87
2 87 88
2 88 89
2 89 90
2 90 91
2 91 92
2 92 93
2 93 94
2 94 95
2 95 96
2 96 97
2 97 98
2 98 99
2 99 100
2 100 1

CELL_TYPES 100
3
3
3
3
3
3
3
3
3
3
3
3
3
3
3
3
3
3
3
3
3
3
3
3
3
3
3
3
3
3
3
3
3
3
3
3
3
3
3
3
3
3
3
3
3
3
3
3
3
3
3
3
3
3
3
3
3
3
3
3
3
3
3
3
3
3
3
3
3
3
3
3
3
3
3
3
3
3
3
3
3
3
3
3
3
3
3
3
3
3
3
3
3
3
3
3
3
3
3
3

POINT_DATA 101
SCALARS MODE2_619.3044_Hz float 1
LOOKUP_TABLE default
0.026678326394251408
0.0
0.00027042069938445454
0.02669908300799135
0.05122620198059031
0.0735970870188794
0.09382103666871622
0.11191006164386384
0.12787948854937414
0.1417486829959544
0.15354173192876894
0.16328807272747556
0.17102307352285254
0.17678857506277895
0.18063340979499545
0.18261392092327147
0.18279451462093704
0.18124829451167088
0.1780578524601362
0.17331632962096333
0.16712892693404371
0.1596151531053246
0.1509122830652464
0.1411808183798074
0.1306132909667855
0.1194486805475529
0.10799616053170648
0.09667354918822064
0.08606517552255694
0.07699038186627889
0.07052139906996296
0.06779307673419194
0.06950141315773865
0.07546310527554023
0.08478647049388952
0.09641173806823972
0.10945160536275443
0.1232537727216953
0.13735162014846516
0.1514044560584662
0.16515386844508056
0.1783958959139839
0.19096401355272147
0.20271881058131203
0.21354169713991591
0.22333103645467836
0.23199975169910905
0.23947384093247262
0.24569145754368366
0.25060234552465505
0.2541674979512153
0.2563589555978693
0.2571596933929035
0.2565635628299333
0.254575272935649
0.25121040379506954
0.24649545700115244
0.2404679585089744
0.23317664320750914
0.22468176974532517
0.2150556428734326
0.20438346558902168
0.1927647163133764
0.18031536755703845
0.16717146778711814
0.15349495947737
0.13948320450629575
0.12538466713938304
0.11152460413667803
0.09834571135527329
0.08646546035876494
0.07673032312148696
0.07018092003459094
0.06776358520223785
0.06979752698318221
0.07570959356789336
0.08439972464774602
0.09476895026187446
0.10595814165819621
0.11735092830459838
0.1285076113813851
0.13910468075092958
0.14889365925404777
0.1576754861769326
0.16528493749393947
0.17158112105141782
0.17644159358225697
0.17975864487126475
0.18143689083567074
0.18139166359647785
0.17954788762880722
0.17583924915807303
0.17020753655746107
0.1626020725539293
0.1529791858672218
0.1413016869830732
0.1275383239097795
0.11166320132918309
0.09365515225077523
0.07349705764894668
0.05117512820321649

