# vtk DataFile Version 2.0
mesh vtk view
ASCII
DATASET UNSTRUCTURED_GRID
POINTS 101 double
-0.0003547873030978982 0.0 0.0
2.0 0.0 0.0
0.0199999999999621 -3.596246226942161e-06 0.0
0.039645212696828885 -1.3998016052141377e-05 0.0
0.059319446356381804 -3.0625024675935976e-05 0.0
0.07902268424851237 -5.289755918153713e-05 0.0
0.09875488394186832 -8.023710727454698e-05 0.0
0.11851596601612985 -0.00011206720075970202 0.0
0.1383058038756219 -0.00014781445175630393 0.0
0.1581242146611721 -0.0001869097597327112 0.0
0.17797095125536108 -0.00022878966755855766 0.0
0.1978456953741509 -0.0002728978449373412 0.0
0.2177480517354324 -0.0003186866777974517 0.0
0.2376775432923642 -0.00036561894249151003 0.0
0.25763360751642983 -0.00041316954398591313 0.0
0.27761559371207606 -0.00046082729761817823 0.0
0.2976227613414738 -0.0005080967344610918 0.0
0.31765427933464424 -0.0005544999108620061 0.0
0.33770922635682094 -0.0005995782033235172 0.0
0.3577865920014081 -0.0006428940705580942 0.0
0.3778852788735059 -0.0006840327652838804 0.0
0.398004105525586 -0.0007226039791304892 0.0
0.41814181020359265 -0.0007582434048901803 0.0
0.43829705535855984 -0.0007906142012787793 0.0
0.45846843287578026 -0.0008194083463590623 0.0
0.47865446997068645 -0.000844347866823316 0.0
0.49885363569792024 -0.0008651859314271263 0.0
0.5190643480176187 -0.0008817077980085189 0.0
0.539284981360726 -0.0008937316047101315 0.0
0.5595138746332101 -0.0009011089972416416 0.0
0.5797493395974024 -0.0009037255852692345 0.0
0.5999896695673363 -0.0009015012222923025 0.0
0.6202331483539255 -0.0008943901046582669 0.0
0.6404780593951226 -0.0008823806866677509 0.0
0.6607226950058431 -0.0008654954100274106 0.0
0.680965365682422 -0.0008437902472095538 0.0
0.7012044093967095 -0.0008173540595692362 0.0
0.7214382008156034 -0.0007863077723437042 0.0
0.7416651603828616 -0.000750803369908819 0.0
0.7618837632014317 -0.0007110227158855383 0.0
0.7820925476562753 -0.0006671762038697519 0.0
0.8022901237197415 -0.0006195012456941636 0.0
0.8224751808839489 -0.0005682606052150475 0.0
0.8426464956673558 -0.0005137405866433483 0.0
0.8628029386457227 -0.0004562490874029763 0.0
0.8829434809609727 -0.0003961135263936236 0.0
0.9030672002650365 -0.00033367865935596963 0.0
0.9231732860595835 -0.0002693042937789311 0.0
0.9432610443965941 -0.00020336291644736644 0.0
0.963329901908972 -0.0001362372473006201 0.0
0.9833794091448307 -6.831773375406637e-05 0.0
1.003409243183687 -2.4588110992175183e-14 0.0
1.0234192095174417 6.831773370522245e-05 0.0
1.043409243183781 0.00013623724725245757 0.0
1.0633794091449509 0.00020336291640007324 0.0
1.0833299019090952 0.000269304293732682 0.0
1.103261044396721 0.0003336786593109328 0.0
1.1231732860597137 0.0003961135263499504 0.0
1.1430672002651687 0.00045624908736080326 0.0
1.1629434809611068 0.0005137405866027951 0.0
1.1828029386458567 0.000568260605176214 0.0
1.2026464956674903 0.0006195012456571397 0.0
1.2224751808840826 0.0006671762038346047 0.0
1.242290123719873 0.0007110227158523179 0.0
1.2620925476564047 0.0007508033698775624 0.0
1.281883763201558 0.0007863077723144296 0.0
1.301665160382984 0.0008173540595419445 0.0
1.3214382008157206 0.0008437902471842272 0.0
1.3412044093968216 0.0008654954100040204 0.0
1.360965365682528 0.0008823806866462537 0.0
1.3807226950059426 0.0008943901046386083 0.0
1.400478059395214 0.000901501222274416 0.0
1.4202331483540096 0.0009037255852530461 0.0
1.4399896695674121 0.0009011089972270693 0.0
1.4597493395974699 0.0008937316046970901 0.0
1.4795138746332683 0.0008817077979969191 0.0
1.4992849813607758 0.0008651859314168762 0.0
1.5190643480176595 0.000844347866814321 0.0
1.538853635697952 0.0008194083463512286 0.0
1.5586544699707081 0.0007906142012720124 0.0
1.5784684328757932 0.0007582434048843852 0.0
1.5982970553585636 0.000722603979125577 0.0
1.6181418102035876 0.0006840327652797647 0.0
1.638004105525571 0.0006428940705546923 0.0
1.6578852788734821 0.0005995782033207454 0.0
1.6777865920013755 0.0005544999108597913 0.0
1.69770922635678 0.0005080967344593656 0.0
1.7176542793345937 0.00046082729761686835 0.0
1.7376227613414144 0.0004131695439849522 0.0
1.7576155937120077 0.00036561894249086314 0.0
1.777633607516355 0.000318686677797088 0.0
1.7976775432922938 0.0002728978449372108 0.0
1.8177480517353795 0.0002287896675586045 0.0
1.8378456953741171 0.00018690975973288567 0.0
1.8579709512553468 0.00014781445175655877 0.0
1.8781242146611765 0.00011206720075998967 0.0
1.8983058038756457 8.02371072748218e-05 0.0
1.9185159660161686 5.2897559181771754e-05 0.0
1.938754883941915 3.062502467611459e-05 0.0
1.9590226842485645 1.3998016052254822e-05 0.0
1.9793194463564425 3.596246226981276e-06 0.0

CELLS 100 300
2 0 2
2 2 3
2 3 4
2 4 5
2 5 6
2 6 7
2 7 8
2 8 9
2 9 10
2 10 11
2 11 12
2 12 13
2 13 14
2 14 15
2 15 16
2 16 17
2 17 18
2 18 19
2 19 20
2 20 21
2 21 22
2 22 23
2 23 24
2 24 25
2 25 26
2 26 27
2 27 28
2 28 29
2 29 30
2 30 31
2 31 32
2 32 33
2 33 34
2 34 35
2 35 36
2 36 37
2 37 38
2 38 39
2 39 40
2 40 41
2 41 42
2 42 43
2 43 44
2 44 45
2 45 46
2 46 47
2 47 48
2 48 49
2 49 50
2 50 51
2 51 52
2 52 53
2 53 54
2 54 55
2 55 56
2 56 57
2 57 58
2 58 59
2 59 60
2 60 61
2 61 62
2 62 63
2 63 64
2 64 65
2 65 66
2 66 67
2 67 68
2 68 69
2 69 70
2 70 71
2 71 72
2 72 73
2 73 74
2 74 75
2 75 76
2 76 77
2 77 78
2 78 79
2 79 80
2 80 81
2 81 82
2 82 83
2 83 84
2 84 85
2 85 86
2 86 87
2 87 88
2 88 89
2 89 90
2 90 91
2 91 92
2 92 93
2 93 94
2 94 95
2 95 96
2 96 97
2 97 98
2 98 99
2 99 100
2 100 1

CELL_TYPES 100
3
3
3
3
3
3
3
3
3
3
3
3
3
3
3
3
3
3
3
3
3
3
3
3
3
3
3
3
3
3
3
3
3
3
3
3
3
3
3
3
3
3
3
3
3
3
3
3
3
3
3
3
3
3
3
3
3
3
3
3
3
3
3
3
3
3
3
3
3
3
3
3
3
3
3
3
3
3
3
3
3
3
3
3
3
3
3
3
3
3
3
3
3
3
3
3
3
3
3
3

POINT_DATA 101
SCALARS MODE2_619.3044_Hz float 1
LOOKUP_TABLE default
0.026678326394251408
0.0
0.00027042069938445454
0.02669908300799135
0.05122620198059031
0.0735970870188794
0.09382103666871622
0.11191006164386384
0.12787948854937414
0.1417486829959544
0.15354173192876894
0.16328807272747556
0.17102307352285254
0.17678857506277895
0.18063340979499545
0.18261392092327147
0.18279451462093704
0.18124829451167088
0.1780578524601362
0.17331632962096333
0.16712892693404371
0.1596151531053246
0.1509122830652464
0.1411808183798074
0.1306132909667855
0.1194486805475529
0.10799616053170648
0.09667354918822064
0.08606517552255694
0.07699038186627889
0.07052139906996296
0.06779307673419194
0.06950141315773865
0.07546310527554023
0.08478647049388952
0.09641173806823972
0.10945160536275443
0.1232537727216953
0.13735162014846516
0.1514044560584662
0.16515386844508056
0.1783958959139839
0.19096401355272147
0.20271881058131203
0.21354169713991591
0.22333103645467836
0.23199975169910905
0.23947384093247262
0.24569145754368366
0.25060234552465505
0.2541674979512153
0.2563589555978693
0.2571596933929035
0.2565635628299333
0.254575272935649
0.25121040379506954
0.24649545700115244
0.2404679585089744
0.23317664320750914
0.22468176974532517
0.2150556428734326
0.20438346558902168
0.1927647163133764
0.18031536755703845
0.16717146778711814
0.15349495947737
0.13948320450629575
0.12538466713938304
0.11152460413667803
0.09834571135527329
0.08646546035876494
0.07673032312148696
0.07018092003459094
0.06776358520223785
0.06979752698318221
0.07570959356789336
0.08439972464774602
0.09476895026187446
0.10595814165819621
0.11735092830459838
0.1285076113813851
0.13910468075092958
0.14889365925404777
0.1576754861769326
0.16528493749393947
0.17158112105141782
0.17644159358225697
0.17975864487126475
0.18143689083567074
0.18139166359647785
0.17954788762880722
0.17583924915807303
0.17020753655746107
0.1626020725539293
0.1529791858672218
0.1413016869830732
0.1275383239097795
0.11166320132918309
0.09365515225077523
0.07349705764894668
0.05117512820321649

