# vtk DataFile Version 2.0
mesh vtk view
ASCII
DATASET UNSTRUCTURED_GRID
POINTS 101 double
-0.006740958758860084 0.0 0.0
2.0 0.0 0.0
0.0199999999999621 -6.832867831190124e-05 0.0
0.03325904124110714 -0.00026596230499068685 0.0
0.047069480773309545 -0.0005818754688427852 0.0
0.061431000724555596 -0.0010050536244492082 0.0
0.07634279489912016 -0.0015245050382163966 0.0
0.09180335431085747 -0.002129276814434344 0.0
0.10781027364185086 -0.0028084745833697826 0.0
0.12436007856785855 -0.003551285434921522 0.0
0.14144807385800018 -0.004347003683612607 0.0
0.15906821211555724 -0.0051850590538094965 0.0
0.17721298298045907 -0.006055046878151598 0.0
0.19587332256274842 -0.006946759907338709 0.0
0.2150385428207975 -0.00785022133573237 0.0
0.23469628053909047 -0.00875571865474541 0.0
0.25483246549869965 -0.009653837954760769 0.0
0.27543130736998866 -0.010535498306378144 0.0
0.2964753007923958 -0.011391985863146856 0.0
0.3179452480406054 -0.012214987340603821 0.0
0.33982029861151286 -0.012996622540393764 0.0
0.36207800500208553 -0.01372947560347933 0.0
0.3846943938852627 -0.014406624692913464 0.0
0.40764405183068947 -0.015021669824296846 0.0
0.43090022465892974 -0.015568758580822226 0.0
0.4544349294631962 -0.016042609469643046 0.0
0.47821907828169036 -0.016438532697115444 0.0
0.5022226123570119 -0.0167524481621619 0.0
0.5264146458771026 -0.016980900489492544 0.0
0.5507636180553493 -0.017121070947591237 0.0
0.5752374523760526 -0.0171707861201155 0.0
0.5998037218058512 -0.017128523223553793 0.0
0.6244298187520978 -0.016993411988507116 0.0
0.6490831285358922 -0.01676523304668731 0.0
0.6737312051406315 -0.016444412790520845 0.0
0.6983419479966827 -0.016032014696981567 0.0
0.7228837785691961 -0.01552972713181553 0.0
0.7473258155292307 -0.014939847674530419 0.0
0.7716380473081861 -0.0142652640282676 0.0
0.7957915008620684 -0.013509431601825262 0.0
0.8197584055051488 -0.012676347873525319 0.0
0.843512350712059 -0.01177052366818914 0.0
0.867028436833049 -0.01079695149908593 0.0
0.8902834177188315 -0.009761071146223642 0.0
0.9132558343088518 -0.008668732660656573 0.0
0.9359261382996528 -0.007526157001478868 0.0
0.9582768050779151 -0.006339894527763439 0.0
0.9802924351753615 -0.005116781581799705 0.0
1.001959843579613 -0.0038638954124999726 0.0
1.0232681363158431 -0.002588507698711789 0.0
1.0442087737982089 -0.0012980369413272644 0.0
1.0647756205371361 -4.671741088513297e-13 0.0
1.084964980877922 0.0012980369403992299 0.0
1.1047756205374135 0.0025885076977967005 0.0
1.1242087737986897 0.003863895411601402 0.0
1.1432681363164972 0.005116781580920971 0.0
1.1619598435804321 0.00633989452690774 0.0
1.1802924351763344 0.0075261570006490775 0.0
1.198276805079031 0.008668732659855285 0.0
1.2159261383008984 0.009761071145453134 0.0
1.2332558343102114 0.010796951498348095 0.0
1.2502834177202924 0.011770523667485685 0.0
1.267028436834596 0.012676347872857522 0.0
1.2835123507136763 0.013509431601194078 0.0
1.2997584055068225 0.014265264027673722 0.0
1.3157915008637835 0.014939847673974202 0.0
1.331638047309928 0.015529727131296986 0.0
1.3473258155309835 0.016032014696500358 0.0
1.3628837785709462 0.016444412790076433 0.0
1.3783419479984167 0.016765233046278867 0.0
1.3937312051423396 0.016993411988133603 0.0
1.409083128537562 0.01712852322321395 0.0
1.4244298187537214 0.01717078611980792 0.0
1.4398037218074198 0.017121070947314364 0.0
1.4552374523775617 0.016980900489244756 0.0
1.470763618056794 0.01675244816194151 0.0
1.486414645878481 0.016438532696920694 0.0
1.502222612358319 0.01604260946947214 0.0
1.5182190782829246 0.015568758580673386 0.0
1.534434929464354 0.015021669824168277 0.0
1.550900224660013 0.014406624692803356 0.0
1.567644051831698 0.013729475603385999 0.0
1.584694393886199 0.012996622540315562 0.0
1.6020780050029488 0.012214987340539187 0.0
1.6198202986123047 0.011391985863094192 0.0
1.6379452480413261 0.010535498306336063 0.0
1.6564753007930568 0.00965383795472797 0.0
1.6754313073705802 0.008755718654720522 0.0
1.6948324654992175 0.007850221335714112 0.0
1.7146962805395425 0.006946759907326418 0.0
1.735038542821186 0.006055046878144688 0.0
1.7558733225630858 0.005185059053807018 0.0
1.777212982980759 0.004347003683613497 0.0
1.7990682121158226 0.003551285434924837 0.0
1.8214480738582317 0.0028084745833746243 0.0
1.8443600785680574 0.0021292768144398097 0.0
1.8678102736420217 0.0015245050382216181 0.0
1.8918033543110002 0.001005053624453666 0.0
1.9163427948992313 0.0005818754688461787 0.0
1.941431000724635 0.0002659623049928423 0.0
1.967069480773362 6.832867831264443e-05 0.0

CELLS 100 300
2 0 2
2 2 3
2 3 4
2 4 5
2 5 6
2 6 7
2 7 8
2 8 9
2 9 10
2 10 11
2 11 12
2 12 13
2 13 14
2 14 15
2 15 16
2 16 17
2 17 18
2 18 19
2 19 20
2 20 21
2 21 22
2 22 23
2 23 24
2 24 25
2 25 26
2 26 27
2 27 28
2 28 29
2 29 30
2 30 31
2 31 32
2 32 33
2 33 34
2 34 35
2 35 36
2 36 37
2 37 38
2 38 39
2 39 40
2 40 41
2 41 42
2 42 43
2 43 44
2 44 45
2 45 46
2 46 47
2 47 48
2 48 49
2 49 50
2 50 51
2 51 52
2 52 53
2 53 54
2 54 55
2 55 56
2 56 57
2 57 58
2 58 59
2 59 60
2 60 61
2 61 62
2 62 63
2 63 64
2 64 65
2 65 66
2 66 67
2 67 68
2 68 69
2 69 70
2 70 71
2 71 72
2 72 73
2 73 74
2 74 75
2 75 76
2 76 77
2 77 78
2 78 79
2 79 80
2 80 81
2 81 82
2 82 83
2 83 84
2 84 85
2 85 86
2 86 87
2 87 88
2 88 89
2 89 90
2 90 91
2 91 92
2 92 93
2 93 94
2 94 95
2 95 96
2 96 97
2 97 98
2 98 99
2 99 100
2 100 1

CELL_TYPES 100
3
3
3
3
3
3
3
3
3
3
3
3
3
3
3
3
3
3
3
3
3
3
3
3
3
3
3
3
3
3
3
3
3
3
3
3
3
3
3
3
3
3
3
3
3
3
3
3
3
3
3
3
3
3
3
3
3
3
3
3
3
3
3
3
3
3
3
3
3
3
3
3
3
3
3
3
3
3
3
3
3
3
3
3
3
3
3
3
3
3
3
3
3
3
3
3
3
3
3
3

POINT_DATA 101
SCALARS MODE2_619.3044_Hz float 1
LOOKUP_TABLE default
0.026678326394251408
0.0
0.00027042069938445454
0.02669908300799135
0.05122620198059031
0.0735970870188794
0.09382103666871622
0.11191006164386384
0.12787948854937414
0.1417486829959544
0.15354173192876894
0.16328807272747556
0.17102307352285254
0.17678857506277895
0.18063340979499545
0.18261392092327147
0.18279451462093704
0.18124829451167088
0.1780578524601362
0.17331632962096333
0.16712892693404371
0.1596151531053246
0.1509122830652464
0.1411808183798074
0.1306132909667855
0.1194486805475529
0.10799616053170648
0.09667354918822064
0.08606517552255694
0.07699038186627889
0.07052139906996296
0.06779307673419194
0.06950141315773865
0.07546310527554023
0.08478647049388952
0.09641173806823972
0.10945160536275443
0.1232537727216953
0.13735162014846516
0.1514044560584662
0.16515386844508056
0.1783958959139839
0.19096401355272147
0.20271881058131203
0.21354169713991591
0.22333103645467836
0.23199975169910905
0.23947384093247262
0.24569145754368366
0.25060234552465505
0.2541674979512153
0.2563589555978693
0.2571596933929035
0.2565635628299333
0.254575272935649
0.25121040379506954
0.24649545700115244
0.2404679585089744
0.23317664320750914
0.22468176974532517
0.2150556428734326
0.20438346558902168
0.1927647163133764
0.18031536755703845
0.16717146778711814
0.15349495947737
0.13948320450629575
0.12538466713938304
0.11152460413667803
0.09834571135527329
0.08646546035876494
0.07673032312148696
0.07018092003459094
0.06776358520223785
0.06979752698318221
0.07570959356789336
0.08439972464774602
0.09476895026187446
0.10595814165819621
0.11735092830459838
0.1285076113813851
0.13910468075092958
0.14889365925404777
0.1576754861769326
0.16528493749393947
0.17158112105141782
0.17644159358225697
0.17975864487126475
0.18143689083567074
0.18139166359647785
0.17954788762880722
0.17583924915807303
0.17020753655746107
0.1626020725539293
0.1529791858672218
0.1413016869830732
0.1275383239097795
0.11166320132918309
0.09365515225077523
0.07349705764894668
0.05117512820321649

