# vtk DataFile Version 2.0
mesh vtk view
ASCII
DATASET UNSTRUCTURED_GRID
POINTS 101 double
-0.006031384152664286 0.0 0.0
2.0 0.0 0.0
0.0199999999999621 -6.11361858580169e-05 0.0
0.03396861584729845 -0.00023796627288640406 0.0
0.048430588060317574 -0.0005206254194909131 0.0
0.06338563222721746 -0.0008992585060861337 0.0
0.07883302701498107 -0.0013640308236673023 0.0
0.09477142227810996 -0.0019051424129149395 0.0
0.11119866589004765 -0.0025128456798571737 0.0
0.12811164924489338 -0.003177465915456099 0.0
0.14550617134659583 -0.003889424348495491 0.0
0.1633768213665121 -0.004639263363934813 0.0
0.18171687950878943 -0.005417673522556694 0.0
0.20051823597715018 -0.006215522022355687 0.0
0.2197713277869789 -0.007023882247760542 0.0
0.23946509311386666 -0.007834064059509052 0.0
0.25958694281456346 -0.008637644485838583 0.0
0.28012274869939485 -0.00942649848465413 0.0
0.30105684807733196 -0.01019282945649982 0.0
0.3223720640362502 -0.01092919919948763 0.0
0.34404974086284545 -0.011628557009825999 0.0
0.36606979394914113 -0.012284267645218349 0.0
0.38841077347618824 -0.012890137883133099 0.0
0.41104994111156395 -0.013440441421739285 0.0
0.43396335890524645 -0.013929941888104097 0.0
0.457125989519584 -0.01435391373599641 0.0
0.4805118068834937 -0.014708160834261188 0.0
0.5040939163193016 -0.014989032566144861 0.0
0.5278446831530608 -0.015193437280072277 0.0
0.5517358687862228 -0.01531885295310795 0.0
0.5757387731784248 -0.015363334949577027 0.0
0.5998243826682385 -0.015325520778969185 0.0
0.6239635220411898 -0.015204631779190578 0.0
0.6481270097424734 -0.015000471673351806 0.0
0.672285815125655 -0.01471342197046602 0.0
0.6964112166284315 -0.014344434202562454 0.0
0.7204749597722531 -0.013895019012677054 0.0
0.7444494138943832 -0.013367232129843008 0.0
0.7683077265387055 -0.012763657288449958 0.0
0.792023974455331 -0.012087386170054183 0.0
0.8155733101886072 -0.011341995465785813 0.0
0.8389321032684682 -0.01053152117680081 0.0
0.8620780750609267 -0.009660430288655833 0.0
0.8849904263797785 -0.008733589972936944 0.0
0.9076499570129486 -0.007756234485850617 0.0
0.9300391763731327 -0.006733929948691619 0.0
0.9521424045431509 -0.005672537209051498 0.0
0.9739458630513861 -0.004578172994241841 0.0
0.9954377547814999 -0.0034571695796052388 0.0
1.0166083324928574 -0.0023160332041105482 0.0
1.0374499555033891 -0.0011614014738191316 0.0
1.0579571341645309 -4.1799788686697926e-13 0.0
1.0781265618378688 0.0011614014729887847 0.0
1.0979571341647876 0.0023160332032917848 0.0
1.1174499555038298 0.0034571695788012543 0.0
1.1366083324934526 0.004578172993455606 0.0
1.155437754782242 0.005672537208285873 0.0
1.1739458630522654 0.006733929947949175 0.0
1.1921424045441573 0.007756234485133676 0.0
1.2100391763742548 0.008733589972247541 0.0
1.2276499570141721 0.009660430287995663 0.0
1.244990426381092 0.010531521176171402 0.0
1.2620780750623168 0.01134199546518831 0.0
1.2789321032699204 0.012087386169489438 0.0
1.2955733101901095 0.012763657287918595 0.0
1.3120239744568696 0.01336723212934534 0.0
1.3283077265402676 0.013895019012213093 0.0
1.3444494138959542 0.0143444342021319 0.0
1.3604749597738213 0.014713421970068388 0.0
1.3764112166299847 0.015000471672986354 0.0
1.3922858151271844 0.015204631778856382 0.0
1.408127009743968 0.015325520778665114 0.0
1.4239635220426423 0.015363334949301826 0.0
1.4398243826696413 0.01531885295286022 0.0
1.4557387731797737 0.015193437279850572 0.0
1.4717358687875133 0.014989032565947665 0.0
1.4878446831542915 0.014708160834086936 0.0
1.504093916320468 0.014353913735843497 0.0
1.5205118068845944 0.013929941887970925 0.0
1.5371259895206157 0.013440441421624247 0.0
1.553963358906211 0.012890137883034582 0.0
1.5710499411124608 0.012284267645134843 0.0
1.5884107734770199 0.01162855700975603 0.0
1.6060697939499067 0.0109291991994298 0.0
1.6240497408635466 0.010192829456452699 0.0
1.6423720640368873 0.009426498484616477 0.0
1.6610568480779149 0.008637644485809238 0.0
1.680122748699915 0.007834064059486784 0.0
1.699586942815017 0.007023882247744206 0.0
1.7194650931142608 0.006215522022344691 0.0
1.739771327787316 0.00541767352255051 0.0
1.7605182359774423 0.004639263363932595 0.0
1.78171687950905 0.0038894243484962868 0.0
1.8033768213667443 0.003177465915459065 0.0
1.8255061713468 0.0025128456798615057 0.0
1.8481116492450707 0.0019051424129198297 0.0
1.8711986658902022 0.0013640308236719742 0.0
1.8947714222782412 0.0008992585060901222 0.0
1.918833027015085 0.0005206254194939495 0.0
1.9433856322272938 0.0002379662728883326 0.0
1.968430588060371 6.113618585868186e-05 0.0

CELLS 100 300
2 0 2
2 2 3
2 3 4
2 4 5
2 5 6
2 6 7
2 7 8
2 8 9
2 9 10
2 10 11
2 11 12
2 12 13
2 13 14
2 14 15
2 15 16
2 16 17
2 17 18
2 18 19
2 19 20
2 20 21
2 21 22
2 22 23
2 23 24
2 24 25
2 25 26
2 26 27
2 27 28
2 28 29
2 29 30
2 30 31
2 31 32
2 32 33
2 33 34
2 34 35
2 35 36
2 36 37
2 37 38
2 38 39
2 39 40
2 40 41
2 41 42
2 42 43
2 43 44
2 44 45
2 45 46
2 46 47
2 47 48
2 48 49
2 49 50
2 50 51
2 51 52
2 52 53
2 53 54
2 54 55
2 55 56
2 56 57
2 57 58
2 58 59
2 59 60
2 60 61
2 61 62
2 62 63
2 63 64
2 64 65
2 65 66
2 66 67
2 67 68
2 68 69
2 69 70
2 70 71
2 71 72
2 72 73
2 73 74
2 74 75
2 75 76
2 76 77
2 77 78
2 78 79
2 79 80
2 80 81
2 81 82
2 82 83
2 83 84
2 84 85
2 85 86
2 86 87
2 87 88
2 88 89
2 89 90
2 90 91
2 91 92
2 92 93
2 93 94
2 94 95
2 95 96
2 96 97
2 97 98
2 98 99
2 99 100
2 100 1

CELL_TYPES 100
3
3
3
3
3
3
3
3
3
3
3
3
3
3
3
3
3
3
3
3
3
3
3
3
3
3
3
3
3
3
3
3
3
3
3
3
3
3
3
3
3
3
3
3
3
3
3
3
3
3
3
3
3
3
3
3
3
3
3
3
3
3
3
3
3
3
3
3
3
3
3
3
3
3
3
3
3
3
3
3
3
3
3
3
3
3
3
3
3
3
3
3
3
3
3
3
3
3
3
3

POINT_DATA 101
SCALARS MODE2_619.3044_Hz float 1
LOOKUP_TABLE default
0.026678326394251408
0.0
0.00027042069938445454
0.02669908300799135
0.05122620198059031
0.0735970870188794
0.09382103666871622
0.11191006164386384
0.12787948854937414
0.1417486829959544
0.15354173192876894
0.16328807272747556
0.17102307352285254
0.17678857506277895
0.18063340979499545
0.18261392092327147
0.18279451462093704
0.18124829451167088
0.1780578524601362
0.17331632962096333
0.16712892693404371
0.1596151531053246
0.1509122830652464
0.1411808183798074
0.1306132909667855
0.1194486805475529
0.10799616053170648
0.09667354918822064
0.08606517552255694
0.07699038186627889
0.07052139906996296
0.06779307673419194
0.06950141315773865
0.07546310527554023
0.08478647049388952
0.09641173806823972
0.10945160536275443
0.1232537727216953
0.13735162014846516
0.1514044560584662
0.16515386844508056
0.1783958959139839
0.19096401355272147
0.20271881058131203
0.21354169713991591
0.22333103645467836
0.23199975169910905
0.23947384093247262
0.24569145754368366
0.25060234552465505
0.2541674979512153
0.2563589555978693
0.2571596933929035
0.2565635628299333
0.254575272935649
0.25121040379506954
0.24649545700115244
0.2404679585089744
0.23317664320750914
0.22468176974532517
0.2150556428734326
0.20438346558902168
0.1927647163133764
0.18031536755703845
0.16717146778711814
0.15349495947737
0.13948320450629575
0.12538466713938304
0.11152460413667803
0.09834571135527329
0.08646546035876494
0.07673032312148696
0.07018092003459094
0.06776358520223785
0.06979752698318221
0.07570959356789336
0.08439972464774602
0.09476895026187446
0.10595814165819621
0.11735092830459838
0.1285076113813851
0.13910468075092958
0.14889365925404777
0.1576754861769326
0.16528493749393947
0.17158112105141782
0.17644159358225697
0.17975864487126475
0.18143689083567074
0.18139166359647785
0.17954788762880722
0.17583924915807303
0.17020753655746107
0.1626020725539293
0.1529791858672218
0.1413016869830732
0.1275383239097795
0.11166320132918309
0.09365515225077523
0.07349705764894668
0.05117512820321649

