# vtk DataFile Version 2.0
mesh vtk view
ASCII
DATASET UNSTRUCTURED_GRID
POINTS 101 double
0.0008407834578632697 0.0 0.0
2.0 0.0 0.0
0.0199999999999621 -8.474506087195465e-06 0.0
0.0391592165421259 -3.336465745866608e-05 0.0
0.05835843507230215 -7.387045635169346e-05 0.0
0.0775976503546982 -0.00012919208504265893 0.0
0.09687684896980896 -0.00019853010793723813 0.0
0.11619600550619319 -0.0002810857478235608 0.0
0.13555507895237998 -0.00037606123228692306 0.0
0.15495400928877012 -0.0004826602062879105 0.0
0.17439271427934322 -0.0006000882069110117 0.0
0.1938710864628589 -0.0007275531962978429 0.0
0.21338899034312134 -0.0008642661487885352 0.0
0.23294625977778532 -0.00100944168830717 0.0
0.25254269556501147 -0.001162298772042192 0.0
0.2721780632271684 -0.0013220614164912983 0.0
0.29185209099054044 -0.0014879594619614477 0.0
0.31156446795986437 -0.0016592293716403172 0.0
0.3313148424863799 -0.0018351150613850418 0.0
0.3511028207277986 -0.0020148687564067965 0.0
0.37092796539844086 -0.0021977518710672244 0.0
0.3907897947075656 -0.002383035908044351 0.0
0.4106877814837073 -0.0025700033731716736 0.0
0.4306213524826032 -0.0027579487023045644 0.0
0.45058988787607307 -0.0029461791966232703 0.0
0.4705927209189837 -0.003134015962841482 0.0
0.49062913779119055 -0.0033207948548538415 0.0
0.5106983776111249 -0.0035058674134249134 0.0
0.5307996326174481 -0.0036886018005959 0.0
0.5509320485149668 -0.0038683837255639214 0.0
0.5710947249807664 -0.004044617358871913 0.0
0.5912867163262868 -0.004216726231834942 0.0
0.6115070323108334 -0.00438415411822122 0.0
0.6317546391017896 -0.004546365895302931 0.0
0.6520284603765765 -0.004702848381493362 0.0
0.6723273785611849 -0.004853111147892349 0.0
0.6926502361998942 -0.004996687301171978 0.0
0.7129958374505835 -0.0051331342353482115 0.0
0.7333629496998413 -0.005262034350102028 0.0
0.7537503052918934 -0.005382995733435139 0.0
0.7741566033651752 -0.005495652806570444 0.0
0.7945805117902115 -0.005599666929136065 0.0
0.8150206692022847 -0.0056947269628034505 0.0
0.8354756871222315 -0.005780549791684971 0.0
0.8559441521585546 -0.005856880797933901 0.0
0.876424628283897 -0.0059234942911301335 0.0
0.8969156591788134 -0.0059801938901773224 0.0
0.9174157706356435 -0.00602681285658218 0.0
0.9379234730152054 -0.006063214378133064 0.0
0.9584372637489322 -0.006089291802143571 0.0
0.9789556298789912 -0.006104968817576418 0.0
0.999477050628895 -0.006110199585513957 0.0
1.0199999999969902 -0.006104968817593354 0.0
1.040522949365112 -0.006089291802177232 0.0
1.061044370115116 -0.006063214378183122 0.0
1.0815627362453013 -0.006026812856648195 0.0
1.1020765269791615 -0.005980193890258748 0.0
1.122584229358862 -0.005923494291226329 0.0
1.1430843408158344 -0.005856880798044137 0.0
1.1635753717108983 -0.005780549791808434 0.0
1.1840558478363916 -0.00569472696293925 0.0
1.2045243128728698 -0.005599666929283225 0.0
1.2249793307929753 -0.005495652806727943 0.0
1.245419488205209 -0.005382995733601911 0.0
1.2658433966304092 -0.0052620343502769555 0.0
1.2862496947038569 -0.005133134235530143 0.0
1.3066370502960758 -0.004996687301359741 0.0
1.3270041625455011 -0.004853111148084756 0.0
1.34734976379636 -0.004702848381689203 0.0
1.3676726214352388 -0.004546365895501021 0.0
1.3879715396200163 -0.00438415411842038 0.0
1.40824536089497 -0.004216726232034026 0.0
1.4284929676860934 -0.004044617359069789 0.0
1.4487132836708052 -0.003868383725759517 0.0
1.4689052750164884 -0.003688601800788199 0.0
1.4890679514824467 -0.003505867413612967 0.0
1.5092003673801222 -0.003320794855036745 0.0
1.5293016223865992 -0.0031340159630184137 0.0
1.5493708622066844 -0.0029461791967934727 0.0
1.5694072790790374 -0.0027579487024673678 0.0
1.5894101121220914 -0.0025700033733264695 0.0
1.6093786475157004 -0.0023830359081906272 0.0
1.6293122185147315 -0.0021977518712045516 0.0
1.6492102052910036 -0.0020148687565348425 0.0
1.6690720346002559 -0.0018351150615035304 0.0
1.6888971792710212 -0.001659229371749068 0.0
1.7086851575125601 -0.001487959462060351 0.0
1.7284355320391906 -0.0013220614165803386 0.0
1.7481479090086267 -0.001162298772121454 0.0
1.767821936772105 -0.0010094416883769167 0.0
1.787457304434363 -0.0008642661488491 0.0
1.8070537402216733 -0.0007275531963495647 0.0
1.826611009656407 -0.0006000882069542807 0.0
1.846128913536733 -0.00048266020632321377 0.0
1.8656072857203079 -0.0003760612323148313 0.0
1.8850459907109351 -0.00028108574784471924 0.0
1.904444921047376 -0.00019853010795237695 0.0
1.9238039944936138 -0.000129192085052638 0.0
1.9431231510300513 -7.38704563574833e-05 0.0
1.9624023496452114 -3.336465746133332e-05 0.0
1.9816415649276513 -8.47450608788812e-06 0.0

CELLS 100 300
2 0 2
2 2 3
2 3 4
2 4 5
2 5 6
2 6 7
2 7 8
2 8 9
2 9 10
2 10 11
2 11 12
2 12 13
2 13 14
2 14 15
2 15 16
2 16 17
2 17 18
2 18 19
2 19 20
2 20 21
2 21 22
2 22 23
2 23 24
2 24 25
2 25 26
2 26 27
2 27 28
2 28 29
2 29 30
2 30 31
2 31 32
2 32 33
2 33 34
2 34 35
2 35 36
2 36 37
2 37 38
2 38 39
2 39 40
2 40 41
2 41 42
2 42 43
2 43 44
2 44 45
2 45 46
2 46 47
2 47 48
2 48 49
2 49 50
2 50 51
2 51 52
2 52 53
2 53 54
2 54 55
2 55 56
2 56 57
2 57 58
2 58 59
2 59 60
2 60 61
2 61 62
2 62 63
2 63 64
2 64 65
2 65 66
2 66 67
2 67 68
2 68 69
2 69 70
2 70 71
2 71 72
2 72 73
2 73 74
2 74 75
2 75 76
2 76 77
2 77 78
2 78 79
2 79 80
2 80 81
2 81 82
2 82 83
2 83 84
2 84 85
2 85 86
2 86 87
2 87 88
2 88 89
2 89 90
2 90 91
2 91 92
2 92 93
2 93 94
2 94 95
2 95 96
2 96 97
2 97 98
2 98 99
2 99 100
2 100 1

CELL_TYPES 100
3
3
3
3
3
3
3
3
3
3
3
3
3
3
3
3
3
3
3
3
3
3
3
3
3
3
3
3
3
3
3
3
3
3
3
3
3
3
3
3
3
3
3
3
3
3
3
3
3
3
3
3
3
3
3
3
3
3
3
3
3
3
3
3
3
3
3
3
3
3
3
3
3
3
3
3
3
3
3
3
3
3
3
3
3
3
3
3
3
3
3
3
3
3
3
3
3
3
3
3

POINT_DATA 101
SCALARS MODE1_224.6674_Hz float 1
LOOKUP_TABLE default
0.009839986425673712
0.0
9.918014452165108e-05
0.00984773101890709
0.01923125756804173
0.028156174108346914
0.036625115811995256
0.04464086832169539
0.05220633260855651
0.05932455773785581
0.06599878065282873
0.07223246627140016
0.0780293466223999
0.08339345874816122
0.08832918136440242
0.09284127036454158
0.09693489330653715
0.1006156630591818
0.10388967082203092
0.10676351877379099
0.10924435264962322
0.11133989460088553
0.1130584767524032
0.11440907594405157
0.11540135022666352
0.11604567777848329
0.11635319901867187
0.11633586281913459
0.11600647785461882
0.11537877028068445
0.11446744908359988
0.11328828059331027
0.11185817376935527
0.1101952779246214
0.10831909448671845
0.10625060412339346
0.1040124099434102
0.10162889633141109
0.09912640100617362
0.09653339472872684
0.09388065825194664
0.09120143905313052
0.08853156063396117
0.08590944452592014
0.08337599020785517
0.08097424305393883
0.07874876974297165
0.07674466192433452
0.07500611259531875
0.07357456543914777
0.07248652832715774
0.07177125602346124
0.07144861109297548
0.0715274591665484
0.07200490559309085
0.07286653094130159
0.07408757674419197
0.07563484445809539
0.07746896438320575
0.0795466895133747
0.0818229486118914
0.08425250682316024
0.08679118850547873
0.0893966923627198
0.09202906909452234
0.09465094384422923
0.09722756034503739
0.09972671012242305
0.10211859462184507
0.10437565403648759
0.10647238523385957
0.10838516268797674
0.1100920703434043
0.1115727483279259
0.11280825586717523
0.11378095020178221
0.11447438043331021
0.1148731947905329
0.11496305964658836
0.11473058861955117
0.11416328018151412
0.11324946233889537
0.1119782431011355
0.11033946561003322
0.10832366694849166
0.10592203978109783
0.10312639609800055
0.09992913243800174
0.0963231960575093
0.09230205159027531
0.0878596478101663
0.08299038416712497
0.07768907681659518
0.0719509239068133
0.0657714699290416
0.05914656897777683
0.0520723468227977
0.04454516179784064
0.036561564791962646
0.028118259694848737
0.019212071430569036

