# vtk DataFile Version 2.0
mesh vtk view
ASCII
DATASET UNSTRUCTURED_GRID
POINTS 101 double
0.008160107971251683 0.0 0.0
2.0 0.0 0.0
0.0199999999999621 8.271366321966994e-05 0.0
0.048160107971124536 0.0003219543691992526 0.0
0.07565273380047816 0.0007043755675465296 0.0
0.10247826228045476 0.0012166438611753577 0.0
0.12863766933219922 0.0018454534673145858 0.0
0.1541327816231597 0.0025775456174731543 0.0
0.1789665108539833 0.003399732390395001 0.0
0.20314306278559013 0.00429892447385237 0.0
0.22666812111850895 0.0052621623538468415 0.0
0.2495490063856091 0.006276650433558866 0.0
0.2717948100753969 0.00732979358934141 0.0
0.2934165042651853 0.008409235677304755 0.0
0.31442702711060627 0.00950289951167603 0.0
0.33484134460939013 0.01059902784521813 0.0
0.3546764891318393 0.011686224892605145 0.0
0.37395157528751827 0.012753497949826177 0.0
0.3926877937760544 0.013790298676440936 0.0
0.41090838394914503 0.014786563622836209 0.0
0.4286385858894967 0.015732753601529297 0.0
0.4459055728902533 0.0166198915200013 0.0
0.46273836529469925 0.017439598312474196 0.0
0.4791677267290537 0.018184126629411976 0.0
0.49522604383158086 0.01884639196625849 0.0
0.5109471906473401 0.019420000936936323 0.0
0.5263663789195601 0.019899276422823964 0.0
0.5415199955650942 0.020279279354195993 0.0
0.5564454286722238 0.020555826908333085 0.0
0.571180883403691 0.02072550693655782 0.0
0.5857651892258686 0.020785688461192452 0.0
0.6002375999159831 0.02073452811272302 0.0
0.6146375878230292 0.0205709724071402 0.0
0.6290046338740964 0.02029475579335833 0.0
0.6433780148261253 0.0199063944306305 0.0
0.657796589263408 0.019407175685819796 0.0
0.6722985838333941 0.01879914337009249 0.0
0.6869213811974336 0.01808507876390525 0.0
0.7017013111490955 0.017268477507902887 0.0
0.7166734463205827 0.016353522465367427 0.0
0.7318714038577775 0.01534505268900434 0.0
0.7473271543966515 0.014248528650965805 0.0
0.763070839618482 0.01306999391994613 0.0
0.7791305995987216 0.011816033492797045 0.0
0.7955324110948839 0.010493729010268486 0.0
0.8122999378427327 0.009110611107053369 0.0
0.8294543938478649 0.007674609165187324 0.0
0.8470144205718796 0.006193998756915433 0.0
0.8649959788192354 0.004677347078289442 0.0
0.8834122560331439 0.0031334566879142717 0.0
0.9022735896069932 0.0015713078763435312 0.0
0.9215874067124212 5.655265528200309e-13 0.0
0.9413581810368011 -0.0015713078752201209 0.0
0.9615874067122709 -0.0031334566868065333 0.0
0.9822735896066326 -0.004677347077201698 0.0
1.0034122560325593 -0.006193998755851703 0.0
1.0249959788184395 -0.007674609164151477 0.0
1.0470144205708856 -0.009110611106048886 0.0
1.0694543938466858 -0.010493729009298505 0.0
1.0922999378413847 -0.011816033491864324 0.0
1.1155324110933837 -0.013069993919052959 0.0
1.1391305995970873 -0.014248528650114252 0.0
1.1630708396167313 -0.015345052688195953 0.0
1.1873271543948016 -0.01635352246460336 0.0
1.2118714038558471 -0.017268477507183983 0.0
1.2366734463185907 -0.018085078763231933 0.0
1.261701311147059 -0.01879914336946478 0.0
1.28692138119537 -0.019407175685237282 0.0
1.312298583831322 -0.01990639443009253 0.0
1.337796589261343 -0.020294755792863897 0.0
1.36337801482408 -0.02057097240668805 0.0
1.3890046338720834 -0.02073452811231163 0.0
1.4146375878210604 -0.02078568846082012 0.0
1.4402375999140686 -0.020725506936222656 0.0
1.4657651892240142 -0.02055582690803313 0.0
1.4911808834019007 -0.0202792793539292 0.0
1.5164454286705022 -0.01989927642258821 0.0
1.5415199955634464 -0.01942000093672944 0.0
1.566366378917989 -0.018846391966078315 0.0
1.590947190645847 -0.01818412662925634 0.0
1.6152260438301667 -0.01743959831234091 0.0
1.6391677267277176 -0.01661989151988832 0.0
1.6627383652934389 -0.015732753601434633 0.0
1.6859055728890673 -0.014786563622757966 0.0
1.7086385858883855 -0.013790298676377183 0.0
1.7309083839481079 -0.012753497949775238 0.0
1.7526877937750776 -0.011686224892565442 0.0
1.7739515752866115 -0.010599027845188003 0.0
1.79467648913101 -0.009502899511653928 0.0
1.8148413446086282 -0.008409235677289878 0.0
1.834427027109914 -0.007329793589333045 0.0
1.8534165042645712 -0.006276650433555866 0.0
1.8717948100748736 -0.005262162353847919 0.0
1.8895490063851765 -0.004298924473856383 0.0
1.906668121118167 -0.0033997323904008617 0.0
1.923143062785335 -0.00257754561747977 0.0
1.938966510853811 -0.0018454534673209067 0.0
1.9541327816230596 -0.0012166438611807538 0.0
1.9686376693321603 -0.0007043755675506376 0.0
1.9824782622804709 -0.00032195436920186185 0.0
1.9956527338005496 -8.271366322056959e-05 0.0

CELLS 100 300
2 0 2
2 2 3
2 3 4
2 4 5
2 5 6
2 6 7
2 7 8
2 8 9
2 9 10
2 10 11
2 11 12
2 12 13
2 13 14
2 14 15
2 15 16
2 16 17
2 17 18
2 18 19
2 19 20
2 20 21
2 21 22
2 22 23
2 23 24
2 24 25
2 25 26
2 26 27
2 27 28
2 28 29
2 29 30
2 30 31
2 31 32
2 32 33
2 33 34
2 34 35
2 35 36
2 36 37
2 37 38
2 38 39
2 39 40
2 40 41
2 41 42
2 42 43
2 43 44
2 44 45
2 45 46
2 46 47
2 47 48
2 48 49
2 49 50
2 50 51
2 51 52
2 52 53
2 53 54
2 54 55
2 55 56
2 56 57
2 57 58
2 58 59
2 59 60
2 60 61
2 61 62
2 62 63
2 63 64
2 64 65
2 65 66
2 66 67
2 67 68
2 68 69
2 69 70
2 70 71
2 71 72
2 72 73
2 73 74
2 74 75
2 75 76
2 76 77
2 77 78
2 78 79
2 79 80
2 80 81
2 81 82
2 82 83
2 83 84
2 84 85
2 85 86
2 86 87
2 87 88
2 88 89
2 89 90
2 90 91
2 91 92
2 92 93
2 93 94
2 94 95
2 95 96
2 96 97
2 97 98
2 98 99
2 99 100
2 100 1

CELL_TYPES 100
3
3
3
3
3
3
3
3
3
3
3
3
3
3
3
3
3
3
3
3
3
3
3
3
3
3
3
3
3
3
3
3
3
3
3
3
3
3
3
3
3
3
3
3
3
3
3
3
3
3
3
3
3
3
3
3
3
3
3
3
3
3
3
3
3
3
3
3
3
3
3
3
3
3
3
3
3
3
3
3
3
3
3
3
3
3
3
3
3
3
3
3
3
3
3
3
3
3
3
3

POINT_DATA 101
SCALARS MODE2_619.3044_Hz float 1
LOOKUP_TABLE default
0.026678326394251408
0.0
0.00027042069938445454
0.02669908300799135
0.05122620198059031
0.0735970870188794
0.09382103666871622
0.11191006164386384
0.12787948854937414
0.1417486829959544
0.15354173192876894
0.16328807272747556
0.17102307352285254
0.17678857506277895
0.18063340979499545
0.18261392092327147
0.18279451462093704
0.18124829451167088
0.1780578524601362
0.17331632962096333
0.16712892693404371
0.1596151531053246
0.1509122830652464
0.1411808183798074
0.1306132909667855
0.1194486805475529
0.10799616053170648
0.09667354918822064
0.08606517552255694
0.07699038186627889
0.07052139906996296
0.06779307673419194
0.06950141315773865
0.07546310527554023
0.08478647049388952
0.09641173806823972
0.10945160536275443
0.1232537727216953
0.13735162014846516
0.1514044560584662
0.16515386844508056
0.1783958959139839
0.19096401355272147
0.20271881058131203
0.21354169713991591
0.22333103645467836
0.23199975169910905
0.23947384093247262
0.24569145754368366
0.25060234552465505
0.2541674979512153
0.2563589555978693
0.2571596933929035
0.2565635628299333
0.254575272935649
0.25121040379506954
0.24649545700115244
0.2404679585089744
0.23317664320750914
0.22468176974532517
0.2150556428734326
0.20438346558902168
0.1927647163133764
0.18031536755703845
0.16717146778711814
0.15349495947737
0.13948320450629575
0.12538466713938304
0.11152460413667803
0.09834571135527329
0.08646546035876494
0.07673032312148696
0.07018092003459094
0.06776358520223785
0.06979752698318221
0.07570959356789336
0.08439972464774602
0.09476895026187446
0.10595814165819621
0.11735092830459838
0.1285076113813851
0.13910468075092958
0.14889365925404777
0.1576754861769326
0.16528493749393947
0.17158112105141782
0.17644159358225697
0.17975864487126475
0.18143689083567074
0.18139166359647785
0.17954788762880722
0.17583924915807303
0.17020753655746107
0.1626020725539293
0.1529791858672218
0.1413016869830732
0.1275383239097795
0.11166320132918309
0.09365515225077523
0.07349705764894668
0.05117512820321649

