# vtk DataFile Version 2.0
mesh vtk view
ASCII
DATASET UNSTRUCTURED_GRID
POINTS 101 double
-0.0010643619092936972 0.0 0.0
2.0 0.0 0.0
0.0199999999999621 -1.0788738680826509e-05 0.0
0.038935638090637575 -4.1994048156424233e-05 0.0
0.057958339069373775 -9.187507402780816e-05 0.0
0.07706805274585052 -0.00015869267754461177 0.0
0.09626465182600742 -0.0002407113218236415 0.0
0.11554789804887737 -0.00033620160227910685 0.0
0.13491741162742513 -0.0004434433552689129 0.0
0.15437264398413725 -0.0005607292791981349 0.0
0.17391285376676544 -0.0006863690026756746 0.0
0.19353708612319603 -0.0008186935348120255 0.0
0.21324415520710205 -0.0009560600333923574 0.0
0.23303262987796247 -0.0010968568274745327 0.0
0.2529008225502484 -0.0012395086319577423 0.0
0.2728467811372999 -0.001382481892854538 0.0
0.29286828402561 -0.0015242902033832787 0.0
0.31296283800523805 -0.0016634997325860222 0.0
0.3331276790718848 -0.0017987346099705558 0.0
0.3533597760057634 -0.001928682211674287 0.0
0.3736558366221734 -0.002052098295851646 0.0
0.39401231657853036 -0.0021678119373914726 0.0
0.41442543061266707 -0.0022747302146705465 0.0
0.43489116607768535 -0.0023718426038363436 0.0
0.4554052986294635 -0.002458225039077193 0.0
0.47596340991429864 -0.002533043600469954 0.0
0.4965609070961169 -0.002595557794281385 0.0
0.517193044055329 -0.0026451233940255627 0.0
0.5378549440847679 -0.002681194814130401 0.0
0.5585416239023366 -0.002703326991724931 0.0
0.5792480187950302 -0.00271117675580771 0.0
0.5999690087049491 -0.002704503666876914 0.0
0.6206994450648335 -0.002683170313974807 0.0
0.6414341781885414 -0.002647142060003259 0.0
0.6621680850208196 -0.002596486230082238 0.0
0.6828960970506733 -0.0025313707416286676 0.0
0.7036132281936525 -0.0024520621787077145 0.0
0.7243146024504509 -0.002358923317031118 0.0
0.744995481152342 -0.0022524101097264626 0.0
0.7656512896081691 -0.0021330681476566197 0.0
0.7862776429728169 -0.0020015286116092604 0.0
0.8068703711633324 -0.0018585037370824954 0.0
0.8274255426560712 -0.0017047818156451465 0.0
0.8479394870064086 -0.0015412217599300485 0.0
0.868408815941626 -0.001368747262208932 0.0
0.8888304428874927 -0.0011883405791808736 0.0
0.9092016007998008 -0.0010010359780679111 0.0
0.9295198581835589 -0.0008079128813367953 0.0
0.9497831331947073 -0.0006100887493421008 0.0
0.9699897057319578 -0.0004087117419018613 0.0
0.9901382274396505 -0.0002049532012621996 0.0
1.0102277295562925 -7.376433297652572e-14 0.0
1.0302576285574951 0.00020495320111566784 0.0
1.0502277295564069 0.00040871174175737365 0.0
1.0701382274398108 0.0006100887492002211 0.0
1.08998970573214 0.0008079128811980478 0.0
1.109783133194911 0.0010010359779328009 0.0
1.1295198581837826 0.001188340579049854 0.0
1.1492016008000423 0.0013687472620824129 0.0
1.1688304428877503 0.0015412217598083891 0.0
1.1884088159418962 0.001704781815528646 0.0
1.2079394870066904 0.0018585037369714232 0.0
1.2274255426563618 0.0020015286115038187 0.0
1.2468703711636289 0.002133068147556959 0.0
1.2662776429731177 0.0022524101096326925 0.0
1.285651289608472 0.0023589233169432943 0.0
1.3049954811526445 0.0024520621786258395 0.0
1.3243146024507497 0.0025313707415526875 0.0
1.3436132281939466 0.0025964862300120674 0.0
1.36289609705096 0.0026471420599387674 0.0
1.3821680850210978 0.002683170313915831 0.0
1.4014341781888082 0.0027045036668232546 0.0
1.4206994450650887 0.0027111767557591445 0.0
1.4399690087051908 0.0027033269916812144 0.0
1.459248018795258 0.0026811948140912766 0.0
1.4785416239025488 0.0026451233939907637 0.0
1.4978549440849653 0.002595557794250635 0.0
1.5171930440555106 0.0025330436004429692 0.0
1.5365609070962825 0.002458225039053692 0.0
1.5559634099144466 0.002371842603816043 0.0
1.5754052986295954 0.0022747302146531607 0.0
1.5948911660778007 0.002167811937376736 0.0
1.6144254306127666 0.002052098295839299 0.0
1.634012316578613 0.0019286822116640816 0.0
1.6536558366222402 0.0017987346099622402 0.0
1.6733597760058143 0.001663499732579378 0.0
1.6931276790719219 0.0015242902033781004 0.0
1.7129628380052588 0.0013824818928506084 0.0
1.7328682840256147 0.0012395086319548596 0.0
1.7528467811372894 0.0010968568274725922 0.0
1.7729008225502252 0.0009560600333912662 0.0
1.7930326298779373 0.0008186935348116342 0.0
1.8132441552070884 0.0006863690026758151 0.0
1.8335370861231954 0.0005607292791986584 0.0
1.8539128537667786 0.00044344335526967735 0.0
1.8743726439841633 0.0003362016022799698 0.0
1.8949174116274652 0.00024071132182446595 0.0
1.9155478980489276 0.00015869267754531563 0.0
1.9362646518260613 9.187507402834399e-05 0.0
1.9570680527459057 4.1994048156764565e-05 0.0
1.9779583390694335 1.0788738680943853e-05 0.0

CELLS 100 300
2 0 2
2 2 3
2 3 4
2 4 5
2 5 6
2 6 7
2 7 8
2 8 9
2 9 10
2 10 11
2 11 12
2 12 13
2 13 14
2 14 15
2 15 16
2 16 17
2 17 18
2 18 19
2 19 20
2 20 21
2 21 22
2 22 23
2 23 24
2 24 25
2 25 26
2 26 27
2 27 28
2 28 29
2 29 30
2 30 31
2 31 32
2 32 33
2 33 34
2 34 35
2 35 36
2 36 37
2 37 38
2 38 39
2 39 40
2 40 41
2 41 42
2 42 43
2 43 44
2 44 45
2 45 46
2 46 47
2 47 48
2 48 49
2 49 50
2 50 51
2 51 52
2 52 53
2 53 54
2 54 55
2 55 56
2 56 57
2 57 58
2 58 59
2 59 60
2 60 61
2 61 62
2 62 63
2 63 64
2 64 65
2 65 66
2 66 67
2 67 68
2 68 69
2 69 70
2 70 71
2 71 72
2 72 73
2 73 74
2 74 75
2 75 76
2 76 77
2 77 78
2 78 79
2 79 80
2 80 81
2 81 82
2 82 83
2 83 84
2 84 85
2 85 86
2 86 87
2 87 88
2 88 89
2 89 90
2 90 91
2 91 92
2 92 93
2 93 94
2 94 95
2 95 96
2 96 97
2 97 98
2 98 99
2 99 100
2 100 1

CELL_TYPES 100
3
3
3
3
3
3
3
3
3
3
3
3
3
3
3
3
3
3
3
3
3
3
3
3
3
3
3
3
3
3
3
3
3
3
3
3
3
3
3
3
3
3
3
3
3
3
3
3
3
3
3
3
3
3
3
3
3
3
3
3
3
3
3
3
3
3
3
3
3
3
3
3
3
3
3
3
3
3
3
3
3
3
3
3
3
3
3
3
3
3
3
3
3
3
3
3
3
3
3
3

POINT_DATA 101
SCALARS MODE2_619.3044_Hz float 1
LOOKUP_TABLE default
0.026678326394251408
0.0
0.00027042069938445454
0.02669908300799135
0.05122620198059031
0.0735970870188794
0.09382103666871622
0.11191006164386384
0.12787948854937414
0.1417486829959544
0.15354173192876894
0.16328807272747556
0.17102307352285254
0.17678857506277895
0.18063340979499545
0.18261392092327147
0.18279451462093704
0.18124829451167088
0.1780578524601362
0.17331632962096333
0.16712892693404371
0.1596151531053246
0.1509122830652464
0.1411808183798074
0.1306132909667855
0.1194486805475529
0.10799616053170648
0.09667354918822064
0.08606517552255694
0.07699038186627889
0.07052139906996296
0.06779307673419194
0.06950141315773865
0.07546310527554023
0.08478647049388952
0.09641173806823972
0.10945160536275443
0.1232537727216953
0.13735162014846516
0.1514044560584662
0.16515386844508056
0.1783958959139839
0.19096401355272147
0.20271881058131203
0.21354169713991591
0.22333103645467836
0.23199975169910905
0.23947384093247262
0.24569145754368366
0.25060234552465505
0.2541674979512153
0.2563589555978693
0.2571596933929035
0.2565635628299333
0.254575272935649
0.25121040379506954
0.24649545700115244
0.2404679585089744
0.23317664320750914
0.22468176974532517
0.2150556428734326
0.20438346558902168
0.1927647163133764
0.18031536755703845
0.16717146778711814
0.15349495947737
0.13948320450629575
0.12538466713938304
0.11152460413667803
0.09834571135527329
0.08646546035876494
0.07673032312148696
0.07018092003459094
0.06776358520223785
0.06979752698318221
0.07570959356789336
0.08439972464774602
0.09476895026187446
0.10595814165819621
0.11735092830459838
0.1285076113813851
0.13910468075092958
0.14889365925404777
0.1576754861769326
0.16528493749393947
0.17158112105141782
0.17644159358225697
0.17975864487126475
0.18143689083567074
0.18139166359647785
0.17954788762880722
0.17583924915807303
0.17020753655746107
0.1626020725539293
0.1529791858672218
0.1413016869830732
0.1275383239097795
0.11166320132918309
0.09365515225077523
0.07349705764894668
0.05117512820321649

