# vtk DataFile Version 2.0
mesh vtk view
ASCII
DATASET UNSTRUCTURED_GRID
POINTS 101 double
-0.0017739365154894947 0.0 0.0
2.0 0.0 0.0
0.0199999999999621 -1.798123113471084e-05 0.0
0.03822606348444627 -6.999008026070703e-05 0.0
0.056597231782365746 -0.0001531251233796802 0.0
0.07511342124318865 -0.0002644877959076862 0.0
0.09377441971014651 -0.0004011855363727357 0.0
0.11257983008162488 -0.0005603360037985112 0.0
0.13152901937922834 -0.0007390722587815212 0.0
0.15062107330710242 -0.0009345487986635578 0.0
0.16985475627816976 -0.0011439483377927906 0.0
0.1892284768722412 -0.0013644892246867087 0.0
0.2087402586787717 -0.0015934333889872617 0.0
0.2283877164635607 -0.0018280947124575538 0.0
0.24816803758406708 -0.00206584771992957 0.0
0.2680779685625237 -0.002304136488090896 0.0
0.28811380670974623 -0.0025404836723054635 0.0
0.30827139667583187 -0.002772499554310036 0.0
0.3285461317869487 -0.0029978910166175918 0.0
0.34893296001011864 -0.003214470352790477 0.0
0.3694263943708408 -0.003420163826419409 0.0
0.39002052763147477 -0.003613019895652453 0.0
0.41070905102174154 -0.003791217024450909 0.0
0.43148527679681087 -0.003953071006393904 0.0
0.4523421643831468 -0.00409704173179532 0.0
0.47327234985791083 -0.004221739334116588 0.0
0.4942681784943136 -0.00432592965713564 0.0
0.5153217400930393 -0.004408538990042603 0.0
0.5364249068088097 -0.004468658023550667 0.0
0.5575693731714633 -0.004505544986208217 0.0
0.578746697992658 -0.004518627926346181 0.0
0.5999483478425619 -0.004507506111461522 0.0
0.6211657417757416 -0.004471950523291344 0.0
0.6423902969819603 -0.004411903433338763 0.0
0.6636134750357962 -0.004327477050137062 0.0
0.6848268284189245 -0.004218951236047778 0.0
0.7060220469905955 -0.0040867702978461895 0.0
0.7271910040852984 -0.003931538861718529 0.0
0.7483258019218225 -0.003754016849544103 0.0
0.7694188160149066 -0.0035551135794276985 0.0
0.7904627382893583 -0.0033358810193487663 0.0
0.8114506186069232 -0.003097506228470824 0.0
0.8323759044281933 -0.002841303026075243 0.0
0.8532324783454615 -0.0025687029332167465 0.0
0.8740146932375292 -0.002281245437014886 0.0
0.8947174048140127 -0.001980567631968122 0.0
0.915336001334565 -0.0016683932967798513 0.0
0.9358664303075341 -0.0013465214688946582 0.0
0.9563052219928205 -0.0010168145822368343 0.0
0.9766495095549433 -0.0006811862365031019 0.0
0.9968970457344702 -0.00034158866877033255 0.0
1.017046215928898 -1.2294055496087617e-13 0.0
1.0370960475975484 0.0003415886685261129 0.0
1.0570462159290326 0.0006811862362622892 0.0
1.0768970457346705 0.0010168145820003683 0.0
1.0966495095551845 0.0013465214686634126 0.0
1.1163052219931013 0.0016683932965546673 0.0
1.1358664303078516 0.001980567631749756 0.0
1.1553360013349159 0.002281245436804021 0.0
1.1747174048143938 0.002568702933013981 0.0
1.1940146932379356 0.0028413030258810754 0.0
1.2132324783458908 0.0030975062282857044 0.0
1.232375904428641 0.00333588101917303 0.0
1.2514506186073848 0.003555113579261597 0.0
1.2704627382898308 0.003754016849387819 0.0
1.2894188160153859 0.003931538861572156 0.0
1.308325801922305 0.004086770297709731 0.0
1.327191004085779 0.004218951235921144 0.0
1.3460220469910715 0.004327477050020111 0.0
1.364826828419392 0.004411903433231277 0.0
1.383613475036253 0.00447195052319305 0.0
1.4023902969824025 0.004507506111372089 0.0
1.4211657417761678 0.00451862792626524 0.0
1.4399483478429695 0.004505544986135356 0.0
1.458746697993046 0.004468658023485459 0.0
1.4775693731718296 0.004408538989984604 0.0
1.4964249068091546 0.0043259296570843896 0.0
1.5153217400933616 0.004221739334071614 0.0
1.5342681784946126 0.004097041731756151 0.0
1.553272349858185 0.00395307100636007 0.0
1.5723421643833977 0.003791217024421933 0.0
1.5914852767970378 0.0036130198956278925 0.0
1.6107090510219457 0.00342016382639883 0.0
1.6300205276316548 0.003214470352773468 0.0
1.6494263943709981 0.0029978910166037326 0.0
1.6689329600102534 0.002772499554298962 0.0
1.6885461317870638 0.002540483672296833 0.0
1.708271396675924 0.0023041364880843464 0.0
1.728113806709815 0.002065847719924765 0.0
1.748077968562571 0.0018280947124543194 0.0
1.7681680375840954 0.001593433388985443 0.0
1.7883877164635809 0.0013644892246860564 0.0
1.8087402586787973 0.0011439483377930248 0.0
1.829228476872274 0.0009345487986644302 0.0
1.8498547562782102 0.0007390722587827953 0.0
1.87062107330715 0.0005603360037999495 0.0
1.8915290193792849 0.00040118553637410976 0.0
1.9125798300816867 0.00026448779590885926 0.0
1.9337744197102076 0.00015312512338057325 0.0
1.9551134212432468 6.999008026127426e-05 0.0
1.9765972317824245 1.7981231134906417e-05 0.0

CELLS 100 300
2 0 2
2 2 3
2 3 4
2 4 5
2 5 6
2 6 7
2 7 8
2 8 9
2 9 10
2 10 11
2 11 12
2 12 13
2 13 14
2 14 15
2 15 16
2 16 17
2 17 18
2 18 19
2 19 20
2 20 21
2 21 22
2 22 23
2 23 24
2 24 25
2 25 26
2 26 27
2 27 28
2 28 29
2 29 30
2 30 31
2 31 32
2 32 33
2 33 34
2 34 35
2 35 36
2 36 37
2 37 38
2 38 39
2 39 40
2 40 41
2 41 42
2 42 43
2 43 44
2 44 45
2 45 46
2 46 47
2 47 48
2 48 49
2 49 50
2 50 51
2 51 52
2 52 53
2 53 54
2 54 55
2 55 56
2 56 57
2 57 58
2 58 59
2 59 60
2 60 61
2 61 62
2 62 63
2 63 64
2 64 65
2 65 66
2 66 67
2 67 68
2 68 69
2 69 70
2 70 71
2 71 72
2 72 73
2 73 74
2 74 75
2 75 76
2 76 77
2 77 78
2 78 79
2 79 80
2 80 81
2 81 82
2 82 83
2 83 84
2 84 85
2 85 86
2 86 87
2 87 88
2 88 89
2 89 90
2 90 91
2 91 92
2 92 93
2 93 94
2 94 95
2 95 96
2 96 97
2 97 98
2 98 99
2 99 100
2 100 1

CELL_TYPES 100
3
3
3
3
3
3
3
3
3
3
3
3
3
3
3
3
3
3
3
3
3
3
3
3
3
3
3
3
3
3
3
3
3
3
3
3
3
3
3
3
3
3
3
3
3
3
3
3
3
3
3
3
3
3
3
3
3
3
3
3
3
3
3
3
3
3
3
3
3
3
3
3
3
3
3
3
3
3
3
3
3
3
3
3
3
3
3
3
3
3
3
3
3
3
3
3
3
3
3
3

POINT_DATA 101
SCALARS MODE2_619.3044_Hz float 1
LOOKUP_TABLE default
0.026678326394251408
0.0
0.00027042069938445454
0.02669908300799135
0.05122620198059031
0.0735970870188794
0.09382103666871622
0.11191006164386384
0.12787948854937414
0.1417486829959544
0.15354173192876894
0.16328807272747556
0.17102307352285254
0.17678857506277895
0.18063340979499545
0.18261392092327147
0.18279451462093704
0.18124829451167088
0.1780578524601362
0.17331632962096333
0.16712892693404371
0.1596151531053246
0.1509122830652464
0.1411808183798074
0.1306132909667855
0.1194486805475529
0.10799616053170648
0.09667354918822064
0.08606517552255694
0.07699038186627889
0.07052139906996296
0.06779307673419194
0.06950141315773865
0.07546310527554023
0.08478647049388952
0.09641173806823972
0.10945160536275443
0.1232537727216953
0.13735162014846516
0.1514044560584662
0.16515386844508056
0.1783958959139839
0.19096401355272147
0.20271881058131203
0.21354169713991591
0.22333103645467836
0.23199975169910905
0.23947384093247262
0.24569145754368366
0.25060234552465505
0.2541674979512153
0.2563589555978693
0.2571596933929035
0.2565635628299333
0.254575272935649
0.25121040379506954
0.24649545700115244
0.2404679585089744
0.23317664320750914
0.22468176974532517
0.2150556428734326
0.20438346558902168
0.1927647163133764
0.18031536755703845
0.16717146778711814
0.15349495947737
0.13948320450629575
0.12538466713938304
0.11152460413667803
0.09834571135527329
0.08646546035876494
0.07673032312148696
0.07018092003459094
0.06776358520223785
0.06979752698318221
0.07570959356789336
0.08439972464774602
0.09476895026187446
0.10595814165819621
0.11735092830459838
0.1285076113813851
0.13910468075092958
0.14889365925404777
0.1576754861769326
0.16528493749393947
0.17158112105141782
0.17644159358225697
0.17975864487126475
0.18143689083567074
0.18139166359647785
0.17954788762880722
0.17583924915807303
0.17020753655746107
0.1626020725539293
0.1529791858672218
0.1413016869830732
0.1275383239097795
0.11166320132918309
0.09365515225077523
0.07349705764894668
0.05117512820321649

