# vtk DataFile Version 2.0
mesh vtk view
ASCII
DATASET UNSTRUCTURED_GRID
POINTS 101 double
0.00886968257744748 0.0 0.0
2.0 0.0 0.0
0.0199999999999621 8.990615567355428e-05 0.0
0.048869682577315846 0.00034995040130353545 0.0
0.07701384108748618 0.0007656256168984017 0.0
0.10443289378311663 0.0013224389795384321 0.0
0.13112790144806014 0.0020059276818636803 0.0
0.15710084959041218 0.002801680018992559 0.0
0.18235490310218008 0.0036953612939076095 0.0
0.20689463346262496 0.0046727439933177935 0.0
0.2307262186071046 0.005719741688963958 0.0
0.25385761563656395 0.006822446123433549 0.0
0.27629870660372724 0.007967166944936314 0.0
0.29806141767958705 0.009140473562287777 0.0
0.3191598120767876 0.010329238599647858 0.0
0.3396101571841663 0.01152068244045449 0.0
0.3594309664477031 0.012702418361527329 0.0
0.37864301661692445 0.013862497771550191 0.0
0.39726934106099054 0.014989455083087973 0.0
0.4153351999447898 0.0160723517639524 0.0
0.4328680281408293 0.017100819132097062 0.0
0.4498973618373089 0.01806509947826228 0.0
0.4664547448856248 0.01895608512225456 0.0
0.4825736160099282 0.01976535503196954 0.0
0.4982891780778976 0.020485208658976618 0.0
0.5136382507037279 0.02110869667058296 0.0
0.5286591075213634 0.021629648285678222 0.0
0.5433912995273839 0.022042694950213035 0.0
0.5578754659481819 0.022343290117753354 0.0
0.5721531341345645 0.022527724931041104 0.0
0.5862665100282408 0.022593139631730926 0.0
0.6002582607783703 0.022537530557307627 0.0
0.6141712911121212 0.022359752616456736 0.0
0.6280485150806776 0.022059517166693837 0.0
0.6419326248111489 0.02163738525068533 0.0
0.6558658578951568 0.021094756180238906 0.0
0.6698897650364511 0.020433851489230964 0.0
0.6840449795625863 0.01965769430859266 0.0
0.698370990379615 0.01877008424772053 0.0
0.7129059199138453 0.01777556789713851 0.0
0.727686308541236 0.016679405096743847 0.0
0.7427469069530608 0.015487531142354134 0.0
0.7581204778463598 0.014206515130376227 0.0
0.7738376082596687 0.012843514666083744 0.0
0.7899265337989807 0.01140622718507444 0.0
0.8064129759162126 0.009902838159840617 0.0
0.8233199933131006 0.008341966483899264 0.0
0.8406678484479043 0.006732607344473297 0.0
0.8584738900211222 0.005084072911184175 0.0
0.8767524522101582 0.0034059311825155127 0.0
0.8955147713121734 0.0017079433438516643 0.0
0.9147689203398157 6.147027748043814e-13 0.0
0.9345197619967477 -0.001707943342630566 0.0
0.9547689203396451 -0.003405931181311449 0.0
0.9755147713117727 -0.005084072910001846 0.0
0.9967524522095146 -0.006732607343317069 0.0
1.0184738900202495 -0.008341966482773343 0.0
1.0406678484468166 -0.009902838158748789 0.0
1.0633199933118123 -0.011406227184020113 0.0
1.0864129759147414 -0.012843514665069916 0.0
1.1099265337973443 -0.01420651512940539 0.0
1.1338376082578872 -0.015487531141428534 0.0
1.158120477844452 -0.016679405095865164 0.0
1.1827469069510457 -0.017775567896308 0.0
1.207686308539134 -0.01877008424693911 0.0
1.2329059199116768 -0.019657694307860796 0.0
1.2583709903773985 -0.02043385148854867 0.0
1.2840449795603408 -0.02109475617960574 0.0
1.3098897650341967 -0.021637385250100574 0.0
1.3358658578929108 -0.02205951716615641 0.0
1.3619326248089247 -0.022359752615965272 0.0
1.3880485150784891 -0.022537530556860464 0.0
1.4141712911099813 -0.02259313963132622 0.0
1.4402582607762902 -0.0225277249306768 0.0
1.4662665100262262 -0.022343290117427316 0.0
1.4921531341326202 -0.02204269494992304 0.0
1.5178754659463127 -0.02162964828542197 0.0
1.5433912995255954 -0.021108696670358088 0.0
1.5686591075196585 -0.020485208658780774 0.0
1.5936382507021085 -0.019765355031800366 0.0
1.6182891780763644 -0.01895608512210968 0.0
1.6425736160084803 -0.018065099478139477 0.0
1.66645474488426 -0.017100819131994165 0.0
1.6898973618360253 -0.016072351763867353 0.0
1.7128680281396274 -0.014989455083018676 0.0
1.7353351999436688 -0.013862497771494823 0.0
1.7572693410599358 -0.012702418361484176 0.0
1.7786430166159464 -0.011520682440421742 0.0
1.7994309664468098 -0.010329238599623834 0.0
1.8196101571833467 -0.009140473562271606 0.0
1.8391598120760437 -0.007967166944927223 0.0
1.8580614176789276 -0.006822446123430289 0.0
1.876298706603165 -0.005719741688965129 0.0
1.8938576156360982 -0.0046727439933221555 0.0
1.9107262186067355 -0.00369536129391398 0.0
1.9268946334623482 -0.00280168001899975 0.0
1.9423549031019913 -0.0020059276818705507 0.0
1.9571008495903004 -0.0013224389795442977 0.0
1.971127901448014 -0.0007656256169028669 0.0
1.9844328937831297 -0.00034995040130637157 0.0
1.9970138410875586 -8.990615567453216e-05 0.0

CELLS 100 300
2 0 2
2 2 3
2 3 4
2 4 5
2 5 6
2 6 7
2 7 8
2 8 9
2 9 10
2 10 11
2 11 12
2 12 13
2 13 14
2 14 15
2 15 16
2 16 17
2 17 18
2 18 19
2 19 20
2 20 21
2 21 22
2 22 23
2 23 24
2 24 25
2 25 26
2 26 27
2 27 28
2 28 29
2 29 30
2 30 31
2 31 32
2 32 33
2 33 34
2 34 35
2 35 36
2 36 37
2 37 38
2 38 39
2 39 40
2 40 41
2 41 42
2 42 43
2 43 44
2 44 45
2 45 46
2 46 47
2 47 48
2 48 49
2 49 50
2 50 51
2 51 52
2 52 53
2 53 54
2 54 55
2 55 56
2 56 57
2 57 58
2 58 59
2 59 60
2 60 61
2 61 62
2 62 63
2 63 64
2 64 65
2 65 66
2 66 67
2 67 68
2 68 69
2 69 70
2 70 71
2 71 72
2 72 73
2 73 74
2 74 75
2 75 76
2 76 77
2 77 78
2 78 79
2 79 80
2 80 81
2 81 82
2 82 83
2 83 84
2 84 85
2 85 86
2 86 87
2 87 88
2 88 89
2 89 90
2 90 91
2 91 92
2 92 93
2 93 94
2 94 95
2 95 96
2 96 97
2 97 98
2 98 99
2 99 100
2 100 1

CELL_TYPES 100
3
3
3
3
3
3
3
3
3
3
3
3
3
3
3
3
3
3
3
3
3
3
3
3
3
3
3
3
3
3
3
3
3
3
3
3
3
3
3
3
3
3
3
3
3
3
3
3
3
3
3
3
3
3
3
3
3
3
3
3
3
3
3
3
3
3
3
3
3
3
3
3
3
3
3
3
3
3
3
3
3
3
3
3
3
3
3
3
3
3
3
3
3
3
3
3
3
3
3
3

POINT_DATA 101
SCALARS MODE2_619.3044_Hz float 1
LOOKUP_TABLE default
0.026678326394251408
0.0
0.00027042069938445454
0.02669908300799135
0.05122620198059031
0.0735970870188794
0.09382103666871622
0.11191006164386384
0.12787948854937414
0.1417486829959544
0.15354173192876894
0.16328807272747556
0.17102307352285254
0.17678857506277895
0.18063340979499545
0.18261392092327147
0.18279451462093704
0.18124829451167088
0.1780578524601362
0.17331632962096333
0.16712892693404371
0.1596151531053246
0.1509122830652464
0.1411808183798074
0.1306132909667855
0.1194486805475529
0.10799616053170648
0.09667354918822064
0.08606517552255694
0.07699038186627889
0.07052139906996296
0.06779307673419194
0.06950141315773865
0.07546310527554023
0.08478647049388952
0.09641173806823972
0.10945160536275443
0.1232537727216953
0.13735162014846516
0.1514044560584662
0.16515386844508056
0.1783958959139839
0.19096401355272147
0.20271881058131203
0.21354169713991591
0.22333103645467836
0.23199975169910905
0.23947384093247262
0.24569145754368366
0.25060234552465505
0.2541674979512153
0.2563589555978693
0.2571596933929035
0.2565635628299333
0.254575272935649
0.25121040379506954
0.24649545700115244
0.2404679585089744
0.23317664320750914
0.22468176974532517
0.2150556428734326
0.20438346558902168
0.1927647163133764
0.18031536755703845
0.16717146778711814
0.15349495947737
0.13948320450629575
0.12538466713938304
0.11152460413667803
0.09834571135527329
0.08646546035876494
0.07673032312148696
0.07018092003459094
0.06776358520223785
0.06979752698318221
0.07570959356789336
0.08439972464774602
0.09476895026187446
0.10595814165819621
0.11735092830459838
0.1285076113813851
0.13910468075092958
0.14889365925404777
0.1576754861769326
0.16528493749393947
0.17158112105141782
0.17644159358225697
0.17975864487126475
0.18143689083567074
0.18139166359647785
0.17954788762880722
0.17583924915807303
0.17020753655746107
0.1626020725539293
0.1529791858672218
0.1413016869830732
0.1275383239097795
0.11166320132918309
0.09365515225077523
0.07349705764894668
0.05117512820321649

