# vtk DataFile Version 2.0
mesh vtk view
ASCII
DATASET UNSTRUCTURED_GRID
POINTS 101 double
-0.0005044700747179619 0.0 0.0
2.0 0.0 0.0
0.0199999999999621 5.08470365231728e-06 0.0
0.04050447007460371 2.001879447519965e-05 0.0
0.06098493895643602 4.4322273811016083e-05 0.0
0.08144140978693036 7.751525102559536e-05 0.0
0.10187389061779267 0.00011911806476234289 0.0
0.12228239669589383 0.00016865144869413653 0.0
0.14266695262812448 0.00022563673937215387 0.0
0.16302759442624112 0.0002895961237727463 0.0
0.1833643714318483 0.00036005292414660703 0.0
0.20367734812168994 0.0004365319177787058 0.0
0.22396660579348335 0.0005185596892731211 0.0
0.24423224413263295 0.000605665012984302 0.0
0.26447438266022594 0.0006973792632253153 0.0
0.28469316206284156 0.000793236849894779 0.0
0.3048887454047248 0.0008927756771768687 0.0
0.32506131922303705 0.0009955376229841904 0.0
0.34521109450703447 0.001101069036831025 0.0
0.3653383075620896 0.001208921253844078 0.0
0.385443220759611 0.0013186511226403346 0.0
0.40552612317404274 0.0014298215448266109 0.0
0.42558733110826424 0.0015420020239030044 0.0
0.4456271885088334 0.001654769221382739 0.0
0.4656460672726579 0.0017677075179739624 0.0
0.48564436744681827 0.0018804095777048891 0.0
0.5056225173234007 0.001992476912912305 0.0
0.5255809734313466 0.0021035204480549484 0.0
0.5455202204274593 0.00221316108035754 0.0
0.5654407708888548 0.002321030235338353 0.0
0.5853431650092816 0.002426770415323148 0.0
0.6052279702018758 0.0025300357391009657 0.0
0.6250957806110544 0.002630492470932732 0.0
0.6449472165363873 0.0027278195371817585 0.0
0.664782923771422 0.0028217090288960175 0.0
0.6846035728605635 0.00291186668873541 0.0
0.7044098582772443 0.0029980123807031864 0.0
0.7242024975267374 0.003079880541208927 0.0
0.7439822301770892 0.0031572206100612165 0.0
0.7637498168217648 0.0032297974400610835 0.0
0.7835060379777022 0.003297391683942267 0.0
0.8032516929225869 0.003359800157481639 0.0
0.8229875984752496 0.0034168361776820704 0.0
0.8427145877231881 0.003468329875010983 0.0
0.8624335087013011 0.0035141284787603413 0.0
0.8821452230260022 0.0035540965746780804 0.0
0.9018506044889588 0.0035881163341063937 0.0
0.9215505376147672 0.003616087713949308 0.0
0.9412459161869368 0.0036379286268798383 0.0
0.9609376417466075 0.0036535750812861432 0.0
0.9806266220684786 0.0036629812905458504 0.0
1.0003137696184776 0.0036661197513083743 0.0
1.0199999999976699 0.003662981290556013 0.0
1.0396862303768817 0.0036535750813063393 0.0
1.0593733779269638 0.0036379286269098733 0.0
1.0790623582489358 0.0036160877139889175 0.0
1.0987540838087047 0.0035881163341552487 0.0
1.1184494623809693 0.0035540965747357977 0.0
1.1381493955068704 0.0035141284788264824 0.0
1.157854776969917 0.003468329875085061 0.0
1.1775664912947044 0.0034168361777635503 0.0
1.1972854122729022 0.0033598001575699354 0.0
1.2170124015209236 0.0032973916840367662 0.0
1.2367483070736665 0.003229797440161147 0.0
1.2564939620186313 0.0031572206101661737 0.0
1.2762501831746476 0.003079880541318086 0.0
1.2960177698194009 0.0029980123808158446 0.0
1.3157975024698287 0.0029118666888508535 0.0
1.3355901417193985 0.002821709029013522 0.0
1.3553964271361556 0.0027278195373006127 0.0
1.3752170762253741 0.002630492471052228 0.0
1.3950527834604851 0.002530035739220416 0.0
1.414904219385896 0.002426770415441874 0.0
1.4347720297951536 0.0023210302354557105 0.0
1.4546568349878286 0.0022131610804729195 0.0
1.4745592291083367 0.0021035204481677804 0.0
1.4944797795698164 0.0019924769130220473 0.0
1.5144190265660147 0.0018804095778110483 0.0
1.5343774826740486 0.0017677075180760839 0.0
1.55435563255072 0.0016547692214804208 0.0
1.5743539327249725 0.0015420020239958819 0.0
1.5943728114888915 0.0014298215449143766 0.0
1.614412668889558 0.001318651122722731 0.0
1.6344738768238778 0.0012089212539209055 0.0
1.6545567792384115 0.0011010690369021182 0.0
1.6746616924360367 0.000995537623049441 0.0
1.6947889054911984 0.0008927756772362107 0.0
1.714938680775303 0.0007932368499482033 0.0
1.7351112545937266 0.0006973792632728725 0.0
1.755306837935724 0.0006056650130261501 0.0
1.7755256173384544 0.00051855968930946 0.0
1.7957677558661513 0.00043653191780973884 0.0
1.816033394205396 0.0003600529241725684 0.0
1.836322651877285 0.00028959612379392827 0.0
1.856635628567225 0.0002256367393888988 0.0
1.8769724055729318 0.00016865144870683153 0.0
1.8973330473711518 0.00011911806477142619 0.0
1.9177176033034942 7.75152510315828e-05 0.0
1.9381261093817166 4.432227381448999e-05 0.0
1.9585585902127036 2.0018794476799995e-05 0.0
1.9790150610433241 5.084703652732872e-06 0.0

CELLS 100 300
2 0 2
2 2 3
2 3 4
2 4 5
2 5 6
2 6 7
2 7 8
2 8 9
2 9 10
2 10 11
2 11 12
2 12 13
2 13 14
2 14 15
2 15 16
2 16 17
2 17 18
2 18 19
2 19 20
2 20 21
2 21 22
2 22 23
2 23 24
2 24 25
2 25 26
2 26 27
2 27 28
2 28 29
2 29 30
2 30 31
2 31 32
2 32 33
2 33 34
2 34 35
2 35 36
2 36 37
2 37 38
2 38 39
2 39 40
2 40 41
2 41 42
2 42 43
2 43 44
2 44 45
2 45 46
2 46 47
2 47 48
2 48 49
2 49 50
2 50 51
2 51 52
2 52 53
2 53 54
2 54 55
2 55 56
2 56 57
2 57 58
2 58 59
2 59 60
2 60 61
2 61 62
2 62 63
2 63 64
2 64 65
2 65 66
2 66 67
2 67 68
2 68 69
2 69 70
2 70 71
2 71 72
2 72 73
2 73 74
2 74 75
2 75 76
2 76 77
2 77 78
2 78 79
2 79 80
2 80 81
2 81 82
2 82 83
2 83 84
2 84 85
2 85 86
2 86 87
2 87 88
2 88 89
2 89 90
2 90 91
2 91 92
2 92 93
2 93 94
2 94 95
2 95 96
2 96 97
2 97 98
2 98 99
2 99 100
2 100 1

CELL_TYPES 100
3
3
3
3
3
3
3
3
3
3
3
3
3
3
3
3
3
3
3
3
3
3
3
3
3
3
3
3
3
3
3
3
3
3
3
3
3
3
3
3
3
3
3
3
3
3
3
3
3
3
3
3
3
3
3
3
3
3
3
3
3
3
3
3
3
3
3
3
3
3
3
3
3
3
3
3
3
3
3
3
3
3
3
3
3
3
3
3
3
3
3
3
3
3
3
3
3
3
3
3

POINT_DATA 101
SCALARS MODE1_224.6674_Hz float 1
LOOKUP_TABLE default
0.009839986425673712
0.0
9.918014452165108e-05
0.00984773101890709
0.01923125756804173
0.028156174108346914
0.036625115811995256
0.04464086832169539
0.05220633260855651
0.05932455773785581
0.06599878065282873
0.07223246627140016
0.0780293466223999
0.08339345874816122
0.08832918136440242
0.09284127036454158
0.09693489330653715
0.1006156630591818
0.10388967082203092
0.10676351877379099
0.10924435264962322
0.11133989460088553
0.1130584767524032
0.11440907594405157
0.11540135022666352
0.11604567777848329
0.11635319901867187
0.11633586281913459
0.11600647785461882
0.11537877028068445
0.11446744908359988
0.11328828059331027
0.11185817376935527
0.1101952779246214
0.10831909448671845
0.10625060412339346
0.1040124099434102
0.10162889633141109
0.09912640100617362
0.09653339472872684
0.09388065825194664
0.09120143905313052
0.08853156063396117
0.08590944452592014
0.08337599020785517
0.08097424305393883
0.07874876974297165
0.07674466192433452
0.07500611259531875
0.07357456543914777
0.07248652832715774
0.07177125602346124
0.07144861109297548
0.0715274591665484
0.07200490559309085
0.07286653094130159
0.07408757674419197
0.07563484445809539
0.07746896438320575
0.0795466895133747
0.0818229486118914
0.08425250682316024
0.08679118850547873
0.0893966923627198
0.09202906909452234
0.09465094384422923
0.09722756034503739
0.09972671012242305
0.10211859462184507
0.10437565403648759
0.10647238523385957
0.10838516268797674
0.1100920703434043
0.1115727483279259
0.11280825586717523
0.11378095020178221
0.11447438043331021
0.1148731947905329
0.11496305964658836
0.11473058861955117
0.11416328018151412
0.11324946233889537
0.1119782431011355
0.11033946561003322
0.10832366694849166
0.10592203978109783
0.10312639609800055
0.09992913243800174
0.0963231960575093
0.09230205159027531
0.0878596478101663
0.08299038416712497
0.07768907681659518
0.0719509239068133
0.0657714699290416
0.05914656897777683
0.0520723468227977
0.04454516179784064
0.036561564791962646
0.028118259694848737
0.019212071430569036

