# vtk DataFile Version 2.0
mesh vtk view
ASCII
DATASET UNSTRUCTURED_GRID
POINTS 101 double
0.0 0.0 0.0
1.0 0.0 0.0
0.009999999999981047 -8.037310967136693e-14 0.0048910506244017994
0.019999999999962246 -2.2593144290198498e-13 0.019256370462882685
0.02999999999994289 -3.418548884562201e-13 0.04263424180492391
0.03999999999992162 -4.303819302069642e-13 0.07456305084823035
0.049999999999899354 -4.938021776169415e-13 0.11458140433595371
0.059999999999878005 -5.34368760939586e-13 0.16222828899585848
0.06999999999986008 -5.544324189349624e-13 0.21704327147314167
0.0799999999998447 -5.56244278310193e-13 0.2785667364493822
0.08999999999982937 -5.42364363622331e-13 0.346340160643112
0.09999999999981404 -5.151487559579901e-13 0.4199064203915665
0.10999999999979872 -4.772028810054801e-13 0.49881013051859757
0.1199999999997824 -4.3094820801144585e-13 0.5825980122008838
0.1299999999997602 -3.7914942848708895e-13 0.6708192875532311
0.13999999999973198 -3.2530901739658847e-13 0.7630260986644616
0.14999999999970268 -2.717657521205809e-13 0.8587739488276614
0.15999999999967357 -2.2035076750554062e-13 0.9576221637232607
0.16999999999964438 -1.7350162483498047e-13 1.0591343703305653
0.17999999999961516 -1.3232102090574538e-13 1.1628789913622348
0.18999999999958597 -9.605103118128169e-14 1.2684297530376758
0.19999999999955675 -6.475359653257537e-14 1.3753662040355052
0.20999999999952756 -3.805158424705869e-14 1.4832742434918094
0.21999999999949835 -1.765499181265221e-14 1.5917466559399562
0.22999999999946913 -5.369707447455967e-15 1.700383651119516
0.23999999999944002 -1.1773963569834685e-15 1.808793406616487
0.24999999999941072 -7.534662605823827e-16 1.9165926113340137
0.25999999999938156 -1.1743587213514458e-15 2.0234070078326702
0.2699999999993523 -6.487997137954396e-16 2.128871931622082
0.27999999999932323 -6.607454658319241e-16 2.232632845531054
0.28999999999929404 -4.710070143551789e-16 2.3343458673311015
0.29999999999926485 -5.512652188527402e-16 2.43367828883925
0.3099999999992356 -3.40837927304774e-16 2.53030908477912
0.3199999999992064 -1.671757992987546e-16 2.623929409735353
0.32999999999917734 8.203705031740197e-17 2.714243081594824
0.33999999999914815 4.3336041932482335e-16 2.8009670499290875
0.3499999999991188 5.949148551987578e-16 2.883831847835873
0.35999999999908966 6.664208180714462e-16 2.9625820258231723
0.3699999999990604 7.875460831448563e-16 3.0369765663873807
0.37999999999903133 1.0298495760036045e-15 3.10678927800717
0.38999999999900214 1.531695208999542e-15 3.1718091673470155
0.3999999999989729 1.1704663185113512e-15 3.2318407885383778
0.4099999999989437 1.7243622251128243e-15 3.2867045684827603
0.4199999999989145 1.1386743982963332e-15 3.336237107198494
0.42999999999888544 2.0399667680114127e-15 3.3802914523127163
0.43999999999885625 2.3165220612961967e-15 3.418737346880754
0.44999999999882706 2.2754973652436378e-15 3.4514614497976224
0.45999999999879776 1.9532554509018875e-15 3.478367528149732
0.4699999999987685 2.8436130258983208e-15 3.499376620939662
0.47999999999873944 2.5236303344388244e-15 3.5144271737023876
0.48999999999871025 2.398366683448845e-15 3.5234751436178597
0.49999999999869194 2.4020595753732727e-15 3.5264940748118914
0.5099999999987074 2.9367638191164727e-15 3.5234751436249314
0.5199999999987337 3.2838412608132082e-15 3.514427173716402
0.5299999999987602 2.3746935121154888e-15 3.4993766209604265
0.5399999999987866 2.784029701877708e-15 3.4783675281770052
0.5499999999988129 2.3002205700033002e-15 3.4514614498311142
0.5599999999988393 3.3038362044536507e-15 3.4187373469201354
0.5699999999988657 3.245903220203772e-15 3.38029145235761
0.5799999999988922 2.842951504660614e-15 3.3362371072484813
0.5899999999989185 3.1440619095925992e-15 3.286704568537391
0.5999999999989448 2.782475138860592e-15 3.231840788597191
0.6099999999989713 2.748465524459795e-15 3.171809167409534
0.6199999999989976 2.9381643517018065e-15 3.106789278072925
0.629999999999024 2.786296217448269e-15 3.0369765664558988
0.6399999999990503 2.731733148886954e-15 2.9625820258939903
0.6499999999990766 3.0888364751281644e-15 2.88383184790852
0.6599999999991031 3.050138851949237e-15 2.8009670500030976
0.6699999999991294 2.716285671389936e-15 2.7142430816697436
0.6799999999991558 3.0100022705307357e-15 2.623929409810723
0.6899999999991823 3.0208481537665518e-15 2.5303090848544927
0.6999999999992086 2.7900721799890384e-15 2.4336782889142015
0.709999999999235 2.9089048077890133e-15 2.334345867405228
0.7199999999992613 2.9969597878976274e-15 2.232632845603983
0.7299999999992879 2.837210409953393e-15 2.1288719316934706
0.7399999999993142 2.799355734976231e-15 2.023407007902206
0.7499999999993405 2.810462068147242e-15 1.9165926114014207
0.759999999999367 2.505024842315889e-15 1.8087934066815132
0.7699999999993933 1.8685600434261307e-15 1.7003836511819803
0.7799999999994197 2.1271808472386072e-15 1.591746655999735
0.789999999999446 2.2303958271133557e-15 1.48327424354881
0.7999999999994724 2.013901637476876e-15 1.3753662040896564
0.8099999999994988 1.855113218423162e-15 1.2684297530889377
0.8199999999995252 1.9876713658829704e-15 1.1628789914105782
0.8299999999995517 1.6612086282848157e-15 1.0591343703759668
0.839999999999578 1.5936901833196713e-15 0.9576221637657177
0.8499999999996044 1.4272650579369752e-15 0.8587739488671793
0.8599999999996307 1.2569164227026215e-15 0.7630260987010354
0.869999999999657 1.2067184433355e-15 0.6708192875868715
0.8799999999996835 1.0763402393876972e-15 0.5825980122316533
0.8899999999997098 8.563980266516867e-16 0.49881013054655127
0.8999999999997362 6.816093994531542e-16 0.41990642041671355
0.9099999999997626 6.860869453108741e-16 0.34634016066546014
0.9199999999997889 4.877425976759637e-16 0.2785667364689469
0.9299999999998153 4.1646346441009976e-16 0.2170432714899462
0.9399999999998417 3.034979659672991e-16 0.1622282890099222
0.9499999999998682 2.230790856995711e-16 0.11458140434730528
0.9599999999998945 1.3523576486907128e-16 0.07456305085692547
0.9699999999999208 7.736196521292368e-17 0.04263424181103508
0.9799999999999472 4.0423655979864444e-17 0.019256370466490723
0.9899999999999736 9.661710184461225e-18 0.004891050625590431

CELLS 100 300
2 0 2
2 2 3
2 3 4
2 4 5
2 5 6
2 6 7
2 7 8
2 8 9
2 9 10
2 10 11
2 11 12
2 12 13
2 13 14
2 14 15
2 15 16
2 16 17
2 17 18
2 18 19
2 19 20
2 20 21
2 21 22
2 22 23
2 23 24
2 24 25
2 25 26
2 26 27
2 27 28
2 28 29
2 29 30
2 30 31
2 31 32
2 32 33
2 33 34
2 34 35
2 35 36
2 36 37
2 37 38
2 38 39
2 39 40
2 40 41
2 41 42
2 42 43
2 43 44
2 44 45
2 45 46
2 46 47
2 47 48
2 48 49
2 49 50
2 50 51
2 51 52
2 52 53
2 53 54
2 54 55
2 55 56
2 56 57
2 57 58
2 58 59
2 59 60
2 60 61
2 61 62
2 62 63
2 63 64
2 64 65
2 65 66
2 66 67
2 67 68
2 68 69
2 69 70
2 70 71
2 71 72
2 72 73
2 73 74
2 74 75
2 75 76
2 76 77
2 77 78
2 78 79
2 79 80
2 80 81
2 81 82
2 82 83
2 83 84
2 84 85
2 85 86
2 86 87
2 87 88
2 88 89
2 89 90
2 90 91
2 91 92
2 92 93
2 93 94
2 94 95
2 95 96
2 96 97
2 97 98
2 98 99
2 99 100
2 100 1

CELL_TYPES 100
3
3
3
3
3
3
3
3
3
3
3
3
3
3
3
3
3
3
3
3
3
3
3
3
3
3
3
3
3
3
3
3
3
3
3
3
3
3
3
3
3
3
3
3
3
3
3
3
3
3
3
3
3
3
3
3
3
3
3
3
3
3
3
3
3
3
3
3
3
3
3
3
3
3
3
3
3
3
3
3
3
3
3
3
3
3
3
3
3
3
3
3
3
3
3
3
3
3
3
3

POINT_DATA 101
SCALARS DISPL float 1
LOOKUP_TABLE default
0.0
0.0
0.0003515844581174384
0.0013842098752206826
0.0030646864964856725
0.005359832036345838
0.00823648006275103
0.011661491458167847
0.015601768791394096
0.020024273434315117
0.024896045257946586
0.030184224742400498
0.03585607733580124
0.04187901989769255
0.04822064906309868
0.05484877136417258
0.06173143494724591
0.06883696272415292
0.07613398679793251
0.08359148400436954
0.09117881241238036
0.09886574862798582
0.10662252574852522
0.11441987181585148
0.12222904861953336
0.13002189070358114
0.13777084443287071
0.14544900697830837
0.153030165082848
0.16048883347373544
0.16780029278978592
0.17494062689616344
0.1818867594629535
0.1886164896878459
0.19510852704744525
0.2013425249661082
0.20729911329576414
0.21295992950489973
0.2183076484797697
0.22332601084594425
0.2279998497234965
0.23231511583445766
0.2362589008866476
0.23981945916356837
0.2429862272557708
0.2457498418749094
0.24810215569762997
0.25003625119242945
0.2515464523887195
0.2526283345534738
0.253278731747059
0.25349574223610444
0.2532787317475673
0.2526283345544812
0.25154645239021206
0.25003625119438994
0.24810215570003746
0.24574984187774024
0.2429862272589979
0.2398194591671616
0.2362589008905746
0.23231511583868536
0.22799984972799053
0.22332601085067094
0.21830764848469497
0.21295992950999035
0.20729911330098624
0.20134252497142827
0.1951085270528307
0.18861648969326372
0.18188675946837152
0.1749406269015512
0.16780029279511435
0.16048883347897783
0.15303016508797962
0.14544900698330684
0.13777084443771614
0.13002189070825543
0.12222904862402349
0.11441987182014857
0.10662252575262261
0.09886574863187837
0.09117881241606524
0.08359148400784462
0.07613398680119611
0.06883696272720487
0.061731434950086574
0.05484877136680163
0.04822064906551686
0.041879019899904356
0.03585607733781064
0.030184224744208153
0.02489604525955304
0.020024273435721492
0.015601768792602059
0.011661491459178793
0.008236480063567017
0.00535983203697087
0.0030646864969249635
0.0013842098754800398
0.0003515844582028811

