# vtk DataFile Version 2.0
mesh vtk view
ASCII
DATASET UNSTRUCTURED_GRID
POINTS 101 double
0.0 0.0 0.0
1.0 0.0 0.0
0.009999999999981054 3.4445618430585823e-14 -0.0020961645533150563
0.019999999999962267 9.682776124370783e-14 -0.008252730198378293
0.02999999999994292 1.4650923790980858e-13 -0.01827181791639596
0.03999999999992166 1.8444939866012747e-13 -0.031955593220670146
0.0499999999998994 2.1162950469297487e-13 -0.04910631614398015
0.05999999999987807 2.2901518325982257e-13 -0.06952640956965361
0.06999999999986016 2.3761389382926955e-13 -0.09301854491706071
0.07999999999984479 2.383904049900827e-13 -0.11938574419259235
0.08999999999982947 2.324418701238561e-13 -0.14843149741847655
0.09999999999981415 2.2077803826771e-13 -0.17995989445352845
0.10999999999979884 2.0451552043091997e-13 -0.21377577022225608
0.11999999999978254 1.8469208914776247e-13 -0.24968486237180731
0.12999999999976036 1.6249261220875237e-13 -0.2874939803799561
0.13999999999973214 1.394181503128236e-13 -0.327011185141912
0.14999999999970284 1.1647103662310608e-13 -0.3680459780689977
0.15999999999967376 9.443604321666026e-14 -0.41040949873854027
0.16999999999964455 7.435783921499162e-14 -0.4539147301416708
0.17999999999961536 5.6709008959605154e-14 -0.49837671058381483
0.18999999999958617 4.1164727649120714e-14 -0.543612751301861
0.19999999999955695 2.7751541371103724e-14 -0.5894426588723594
0.20999999999952776 1.6307821820168008e-14 -0.6356889614964897
0.2199999999994986 7.56642506256523e-15 -0.6821771382599812
0.22999999999946938 2.3013031917668425e-15 -0.7287358504797925
0.23999999999944027 5.045984387072007e-16 -0.7751971742642085
0.24999999999941097 3.2291411167816397e-16 -0.8213968334288628
0.2599999999993818 5.032965948649052e-16 -0.867174431928287
0.26999999999935254 2.780570201980455e-16 -0.9123736849808922
0.27999999999932346 2.831766282136817e-16 -0.9568426480847371
0.28999999999929427 2.0186014900936234e-16 -1.0004339431419005
0.2999999999992651 2.3625652236546e-16 -1.0430049809311068
0.30999999999923583 1.460733974163317e-16 -1.0844181791910514
0.31999999999920664 7.164677112803767e-17 -1.1245411756008654
0.32999999999917756 -3.5158735850315124e-17 -1.1632470349692101
0.3399999999991484 -1.8572589399635284e-16 -1.2004144499696088
0.3499999999991191 -2.5496350937089616e-16 -1.2359279347868024
0.3599999999990899 -2.8560892203061974e-16 -1.2696780110670736
0.36999999999906064 -3.3751974991922405e-16 -1.3015613855945916
0.37999999999903156 -4.4136410400154466e-16 -1.3314811191459297
0.38999999999900237 -6.564408038569465e-16 -1.3593467860058634
0.39999999999897323 -5.016284222191504e-16 -1.3850746236593046
0.40999999999894393 -7.390123821912103e-16 -1.408587672206897
0.41999999999891474 -4.880033135555713e-16 -1.4298159030850686
0.42999999999888566 -8.74271472004891e-16 -1.4486963367054495
0.4399999999988565 -9.927951691269412e-16 -1.46517314866318
0.4499999999988273 -9.752131565329874e-16 -1.4791977641989809
0.459999999998798 -8.371094789579516e-16 -1.490728940635599
0.46999999999876874 -1.2186912968135658e-15 -1.4997328375455692
0.47999999999873966 -1.081555857616639e-15 -1.5061830744438802
0.48999999999871047 -1.0278714357637905e-15 -1.5100607758362254
0.49999999999869216 -1.0294541037314025e-15 -1.5113546034908103
0.5099999999987077 -1.258613065335631e-15 -1.510060775839256
0.519999999998734 -1.4073605403485175e-15 -1.5061830744498863
0.5299999999987605 -1.0177257909066379e-15 -1.499732837554468
0.5399999999987868 -1.1931555865190174e-15 -1.4907289406472877
0.5499999999988131 -9.858088157157e-16 -1.4791977642133345
0.5599999999988395 -1.4159298019087073e-15 -1.4651731486800577
0.569999999998866 -1.3911013800873305e-15 -1.4486963367246897
0.5799999999988924 -1.2184077877116916e-15 -1.4298159031064916
0.5899999999989187 -1.3474551041111138e-15 -1.4085876722303101
0.5999999999989449 -1.192489345225968e-15 -1.3850746236845104
0.6099999999989714 -1.1779137961970548e-15 -1.3593467860326571
0.6199999999989977 -1.2592132935864883e-15 -1.3314811191741105
0.6299999999990241 -1.1941269503349723e-15 -1.3015613856239563
0.6399999999990504 -1.1707427780944087e-15 -1.2696780110974242
0.6499999999990768 -1.3237870607692132e-15 -1.2359279348179368
0.6599999999991032 -1.3072023651211014e-15 -1.2004144500013274
0.6699999999991295 -1.1641224305956866e-15 -1.1632470350013184
0.679999999999156 -1.2900009730846008e-15 -1.124541175633167
0.6899999999991824 -1.2946492087570934e-15 -1.0844181792233538
0.6999999999992087 -1.195745219995302e-15 -1.043004980963229
0.7099999999992351 -1.246673489052434e-15 -1.0004339431736688
0.7199999999992615 -1.2844113376704116e-15 -0.9568426481159925
0.7299999999992879 -1.215947318551454e-15 -0.9123736850114871
0.7399999999993142 -1.1997238864183845e-15 -0.8671744319580882
0.7499999999993405 -1.204483743491675e-15 -0.8213968334577516
0.759999999999367 -1.073582075278238e-15 -0.7751971742920769
0.7699999999993933 -8.008114471826273e-16 -0.7287358505065629
0.7799999999994197 -9.116489345308316e-16 -0.6821771382856006
0.789999999999446 -9.558839259057237e-16 -0.6356889615209185
0.7999999999994724 -8.631007017758038e-16 -0.5894426588955669
0.8099999999994988 -7.95048522181355e-16 -0.5436127513238304
0.8199999999995252 -8.518591568069871e-16 -0.4983767106045334
0.8299999999995517 -7.119465549792066e-16 -0.45391473016112854
0.839999999999578 -6.830100785655733e-16 -0.4104094987567361
0.8499999999996044 -6.116850248301321e-16 -0.3680459780859339
0.8599999999996307 -5.38678466872552e-16 -0.3270111851575866
0.869999999999657 -5.171650471437857e-16 -0.2874939803943734
0.8799999999996835 -4.612886740232987e-16 -0.2496848623849942
0.8899999999997098 -3.670277257078657e-16 -0.21377577023423622
0.8999999999997362 -2.921183140513518e-16 -0.1799598944643058
0.9099999999997626 -2.940372622760888e-16 -0.1484314974280543
0.9199999999997889 -2.0903254186112727e-16 -0.11938574420097722
0.9299999999998153 -1.7848434189004274e-16 -0.09301854492426265
0.9399999999998417 -1.3007055684312816e-16 -0.06952640957568093
0.9499999999998682 -9.560532244267332e-17 -0.049106316148845114
0.9599999999998945 -5.795818494388769e-17 -0.031955593224396624
0.9699999999999208 -3.315512794839586e-17 -0.018271817919015033
0.9799999999999472 -1.7324423991370472e-17 -0.008252730199924594
0.9899999999999736 -4.140732936197667e-18 -0.00209616455382447

CELLS 100 300
2 0 2
2 2 3
2 3 4
2 4 5
2 5 6
2 6 7
2 7 8
2 8 9
2 9 10
2 10 11
2 11 12
2 12 13
2 13 14
2 14 15
2 15 16
2 16 17
2 17 18
2 18 19
2 19 20
2 20 21
2 21 22
2 22 23
2 23 24
2 24 25
2 25 26
2 26 27
2 27 28
2 28 29
2 29 30
2 30 31
2 31 32
2 32 33
2 33 34
2 34 35
2 35 36
2 36 37
2 37 38
2 38 39
2 39 40
2 40 41
2 41 42
2 42 43
2 43 44
2 44 45
2 45 46
2 46 47
2 47 48
2 48 49
2 49 50
2 50 51
2 51 52
2 52 53
2 53 54
2 54 55
2 55 56
2 56 57
2 57 58
2 58 59
2 59 60
2 60 61
2 61 62
2 62 63
2 63 64
2 64 65
2 65 66
2 66 67
2 67 68
2 68 69
2 69 70
2 70 71
2 71 72
2 72 73
2 73 74
2 74 75
2 75 76
2 76 77
2 77 78
2 78 79
2 79 80
2 80 81
2 81 82
2 82 83
2 83 84
2 84 85
2 85 86
2 86 87
2 87 88
2 88 89
2 89 90
2 90 91
2 91 92
2 92 93
2 93 94
2 94 95
2 95 96
2 96 97
2 97 98
2 98 99
2 99 100
2 100 1

CELL_TYPES 100
3
3
3
3
3
3
3
3
3
3
3
3
3
3
3
3
3
3
3
3
3
3
3
3
3
3
3
3
3
3
3
3
3
3
3
3
3
3
3
3
3
3
3
3
3
3
3
3
3
3
3
3
3
3
3
3
3
3
3
3
3
3
3
3
3
3
3
3
3
3
3
3
3
3
3
3
3
3
3
3
3
3
3
3
3
3
3
3
3
3
3
3
3
3
3
3
3
3
3
3

POINT_DATA 101
SCALARS DISPL float 1
LOOKUP_TABLE default
0.0
0.0
0.0003515844581174384
0.0013842098752206826
0.0030646864964856725
0.005359832036345838
0.00823648006275103
0.011661491458167847
0.015601768791394096
0.020024273434315117
0.024896045257946586
0.030184224742400498
0.03585607733580124
0.04187901989769255
0.04822064906309868
0.05484877136417258
0.06173143494724591
0.06883696272415292
0.07613398679793251
0.08359148400436954
0.09117881241238036
0.09886574862798582
0.10662252574852522
0.11441987181585148
0.12222904861953336
0.13002189070358114
0.13777084443287071
0.14544900697830837
0.153030165082848
0.16048883347373544
0.16780029278978592
0.17494062689616344
0.1818867594629535
0.1886164896878459
0.19510852704744525
0.2013425249661082
0.20729911329576414
0.21295992950489973
0.2183076484797697
0.22332601084594425
0.2279998497234965
0.23231511583445766
0.2362589008866476
0.23981945916356837
0.2429862272557708
0.2457498418749094
0.24810215569762997
0.25003625119242945
0.2515464523887195
0.2526283345534738
0.253278731747059
0.25349574223610444
0.2532787317475673
0.2526283345544812
0.25154645239021206
0.25003625119438994
0.24810215570003746
0.24574984187774024
0.2429862272589979
0.2398194591671616
0.2362589008905746
0.23231511583868536
0.22799984972799053
0.22332601085067094
0.21830764848469497
0.21295992950999035
0.20729911330098624
0.20134252497142827
0.1951085270528307
0.18861648969326372
0.18188675946837152
0.1749406269015512
0.16780029279511435
0.16048883347897783
0.15303016508797962
0.14544900698330684
0.13777084443771614
0.13002189070825543
0.12222904862402349
0.11441987182014857
0.10662252575262261
0.09886574863187837
0.09117881241606524
0.08359148400784462
0.07613398680119611
0.06883696272720487
0.061731434950086574
0.05484877136680163
0.04822064906551686
0.041879019899904356
0.03585607733781064
0.030184224744208153
0.02489604525955304
0.020024273435721492
0.015601768792602059
0.011661491459178793
0.008236480063567017
0.00535983203697087
0.0030646864969249635
0.0013842098754800398
0.0003515844582028811

