# vtk DataFile Version 2.0
mesh vtk view
ASCII
DATASET UNSTRUCTURED_GRID
POINTS 101 double
0.0 0.0 0.0
1.0 0.0 0.0
0.009999999999981054 1.913645468365878e-14 -0.0011645358629528086
0.019999999999962263 5.3793200690948766e-14 -0.00458485011021016
0.029999999999942913 8.139402106100472e-14 -0.010151009953553303
0.039999999999921654 1.0247188814451521e-13 -0.01775310734481674
0.049999999999899396 1.1757194705165265e-13 -0.027281286746655625
0.059999999999878054 1.2723065736656802e-13 -0.038625783094251985
0.06999999999986015 1.3200771879403856e-13 -0.05167696939836703
0.07999999999984478 1.324391138833792e-13 -0.06632541344032904
0.08999999999982945 1.291343722910311e-13 -0.0824619430102647
0.09999999999981414 1.2265446570428326e-13 -0.09997771914084909
0.10999999999979881 1.1361973357273325e-13 -0.1187643167901422
0.11999999999978253 1.0260671619320131e-13 -0.13871381242878175
0.12999999999976034 9.027367344930683e-14 -0.15971887798886442
0.13999999999973212 7.745452795156863e-14 -0.1816728806343955
0.14999999999970282 6.470613145728111e-14 -0.20446998781610973
0.15999999999967374 5.246446845370011e-14 -0.2280052770769667
0.16999999999964452 4.130991067499532e-14 -0.2521748500787058
0.17999999999961533 3.15050049775584e-14 -0.2768759503243414
0.18999999999958614 2.2869293138400385e-14 -0.30200708405658927
0.19999999999955692 1.5417522983946504e-14 -0.32746814381797723
0.20999999999952773 9.059901011204444e-15 -0.35316053416471627
0.21999999999949854 4.203569479202903e-15 -0.3789872990333226
0.22999999999946932 1.2785017732038008e-15 -0.40485325026655117
0.23999999999944022 2.8033246594844467e-16 -0.430665096813449
0.24999999999941092 1.7939672871009097e-16 -0.4563315741271458
0.2599999999993818 2.7960921936939166e-16 -0.48176357329349256
0.26999999999935254 1.5447612233224743e-16 -0.5068742694338287
0.27999999999932346 1.5732034900760085e-16 -0.5315792489359648
0.28999999999929427 1.1214452722742347e-16 -0.5557966350788334
0.2999999999992651 1.312536235363666e-16 -0.5794472116283924
0.30999999999923583 8.115188745351756e-17 -0.6024545439950282
0.31999999999920664 3.980376173779869e-17 -0.624745097556036
0.32999999999917756 -1.9532631027952835e-17 -0.6462483527606719
0.3399999999991484 -1.0318105222019596e-16 -0.6668969166497822
0.34999999999911907 -1.4164639409494223e-16 -0.6866266304371121
0.3599999999990899 -1.586716233503442e-16 -0.7053766728150405
0.36999999999906064 -1.875109721773466e-16 -0.7230896586636616
0.37999999999903156 -2.45202280000858e-16 -0.7397117328588495
0.38999999999900237 -3.646893354760812e-16 -0.7551926588921459
0.3999999999989732 -2.786824567884167e-16 -0.7694859020329465
0.40999999999894393 -4.1056243455067214e-16 -0.782548706781609
0.41999999999891474 -2.711129519753172e-16 -0.7943421683805932
0.42999999999888566 -4.857063733360503e-16 -0.8048312981696938
0.4399999999988565 -5.515528717371893e-16 -0.8139850825906552
0.4499999999988273 -5.417850869627705e-16 -0.8217765356661
0.459999999998798 -4.650608216433062e-16 -0.8281827447975546
0.46999999999876874 -6.770507204519807e-16 -0.833184909747538
0.47999999999873966 -6.008643653425768e-16 -0.836768374691044
0.48999999999871047 -5.710396865354388e-16 -0.8389226532423469
0.49999999999869216 -5.719189465174455e-16 -0.839641446383783
0.5099999999987076 -6.992294807420169e-16 -0.8389226532440307
0.5199999999987339 -7.818669668602871e-16 -0.8367683746943809
0.5299999999987604 -5.65403217170354e-16 -0.8331849097524818
0.5399999999987867 -6.628642147327871e-16 -0.8281827448040482
0.549999999998813 -5.476715642864997e-16 -0.8217765356740743
0.5599999999988394 -7.866276677270592e-16 -0.8139850826000317
0.5699999999988659 -7.728341000485166e-16 -0.8048312981803828
0.5799999999988923 -6.768932153953838e-16 -0.7943421683924949
0.5899999999989186 -7.485861689506184e-16 -0.7825487067946163
0.5999999999989449 -6.624940806810928e-16 -0.7694859020469498
0.6099999999989714 -6.543965534428079e-16 -0.7551926589070314
0.6199999999989977 -6.99562940881382e-16 -0.7397117328745054
0.6299999999990241 -6.634038612972064e-16 -0.7230896586799753
0.6399999999990504 -6.504126544968934e-16 -0.7053766728319019
0.6499999999990768 -7.354372559828958e-16 -0.6866266304544091
0.6599999999991032 -7.262235361783892e-16 -0.6668969166674037
0.6699999999991295 -6.467346836642701e-16 -0.6462483527785099
0.679999999999156 -7.166672072692223e-16 -0.6247450975739812
0.6899999999991824 -7.19249560420607e-16 -0.602454544012974
0.6999999999992087 -6.643028999973896e-16 -0.579447211646238
0.7099999999992351 -6.925963828069074e-16 -0.5557966350964825
0.7199999999992615 -7.135618542613393e-16 -0.5315792489533289
0.7299999999992879 -6.755262880841407e-16 -0.5068742694508259
0.7399999999993142 -6.665132702324355e-16 -0.48176357331004876
0.7499999999993405 -6.691576352731524e-16 -0.4563315741431951
0.759999999999367 -5.964344862656875e-16 -0.4306650968289314
0.7699999999993933 -4.448952484347926e-16 -0.4048532502814236
0.7799999999994197 -5.064716302949061e-16 -0.3789872990475557
0.789999999999446 -5.310466255031795e-16 -0.35316053417828785
0.7999999999994724 -4.795003898754463e-16 -0.3274681438308703
0.8099999999994988 -4.416936234340859e-16 -0.3020070840687945
0.8199999999995252 -4.732550871149926e-16 -0.2768759503358518
0.8299999999995517 -3.955258638773368e-16 -0.2521748500895157
0.839999999999578 -3.794500436475405e-16 -0.2280052770870755
0.8499999999996044 -3.3982501379451764e-16 -0.20446998782551873
0.8599999999996307 -2.9926581492919534e-16 -0.18167288064310355
0.869999999999657 -2.8731391507988076e-16 -0.15971887799687404
0.8799999999996835 -2.562714855684991e-16 -0.13871381243610784
0.8899999999997098 -2.0390429205992525e-16 -0.11876431679679783
0.8999999999997362 -1.6228795225075089e-16 -0.0999777191468365
0.9099999999997626 -1.6335403459782705e-16 -0.08246194301558568
0.9199999999997889 -1.1612918992284842e-16 -0.06632541344498731
0.9299999999998153 -9.915796771669035e-17 -0.05167696940236811
0.9399999999998417 -7.22614204684045e-17 -0.038625783097600494
0.9499999999998682 -5.311406802370737e-17 -0.02728128674935838
0.9599999999998945 -3.219899163549314e-17 -0.017753107346887002
0.9699999999999208 -1.8419515526886577e-17 -0.010151009955008346
0.9799999999999472 -9.624679995205813e-18 -0.004584850111069216
0.9899999999999736 -2.3004071867764805e-18 -0.001164535863235816

CELLS 100 300
2 0 2
2 2 3
2 3 4
2 4 5
2 5 6
2 6 7
2 7 8
2 8 9
2 9 10
2 10 11
2 11 12
2 12 13
2 13 14
2 14 15
2 15 16
2 16 17
2 17 18
2 18 19
2 19 20
2 20 21
2 21 22
2 22 23
2 23 24
2 24 25
2 25 26
2 26 27
2 27 28
2 28 29
2 29 30
2 30 31
2 31 32
2 32 33
2 33 34
2 34 35
2 35 36
2 36 37
2 37 38
2 38 39
2 39 40
2 40 41
2 41 42
2 42 43
2 43 44
2 44 45
2 45 46
2 46 47
2 47 48
2 48 49
2 49 50
2 50 51
2 51 52
2 52 53
2 53 54
2 54 55
2 55 56
2 56 57
2 57 58
2 58 59
2 59 60
2 60 61
2 61 62
2 62 63
2 63 64
2 64 65
2 65 66
2 66 67
2 67 68
2 68 69
2 69 70
2 70 71
2 71 72
2 72 73
2 73 74
2 74 75
2 75 76
2 76 77
2 77 78
2 78 79
2 79 80
2 80 81
2 81 82
2 82 83
2 83 84
2 84 85
2 85 86
2 86 87
2 87 88
2 88 89
2 89 90
2 90 91
2 91 92
2 92 93
2 93 94
2 94 95
2 95 96
2 96 97
2 97 98
2 98 99
2 99 100
2 100 1

CELL_TYPES 100
3
3
3
3
3
3
3
3
3
3
3
3
3
3
3
3
3
3
3
3
3
3
3
3
3
3
3
3
3
3
3
3
3
3
3
3
3
3
3
3
3
3
3
3
3
3
3
3
3
3
3
3
3
3
3
3
3
3
3
3
3
3
3
3
3
3
3
3
3
3
3
3
3
3
3
3
3
3
3
3
3
3
3
3
3
3
3
3
3
3
3
3
3
3
3
3
3
3
3
3

POINT_DATA 101
SCALARS DISPL float 1
LOOKUP_TABLE default
0.0
0.0
0.0003515844581174384
0.0013842098752206826
0.0030646864964856725
0.005359832036345838
0.00823648006275103
0.011661491458167847
0.015601768791394096
0.020024273434315117
0.024896045257946586
0.030184224742400498
0.03585607733580124
0.04187901989769255
0.04822064906309868
0.05484877136417258
0.06173143494724591
0.06883696272415292
0.07613398679793251
0.08359148400436954
0.09117881241238036
0.09886574862798582
0.10662252574852522
0.11441987181585148
0.12222904861953336
0.13002189070358114
0.13777084443287071
0.14544900697830837
0.153030165082848
0.16048883347373544
0.16780029278978592
0.17494062689616344
0.1818867594629535
0.1886164896878459
0.19510852704744525
0.2013425249661082
0.20729911329576414
0.21295992950489973
0.2183076484797697
0.22332601084594425
0.2279998497234965
0.23231511583445766
0.2362589008866476
0.23981945916356837
0.2429862272557708
0.2457498418749094
0.24810215569762997
0.25003625119242945
0.2515464523887195
0.2526283345534738
0.253278731747059
0.25349574223610444
0.2532787317475673
0.2526283345544812
0.25154645239021206
0.25003625119438994
0.24810215570003746
0.24574984187774024
0.2429862272589979
0.2398194591671616
0.2362589008905746
0.23231511583868536
0.22799984972799053
0.22332601085067094
0.21830764848469497
0.21295992950999035
0.20729911330098624
0.20134252497142827
0.1951085270528307
0.18861648969326372
0.18188675946837152
0.1749406269015512
0.16780029279511435
0.16048883347897783
0.15303016508797962
0.14544900698330684
0.13777084443771614
0.13002189070825543
0.12222904862402349
0.11441987182014857
0.10662252575262261
0.09886574863187837
0.09117881241606524
0.08359148400784462
0.07613398680119611
0.06883696272720487
0.061731434950086574
0.05484877136680163
0.04822064906551686
0.041879019899904356
0.03585607733781064
0.030184224744208153
0.02489604525955304
0.020024273435721492
0.015601768792602059
0.011661491459178793
0.008236480063567017
0.00535983203697087
0.0030646864969249635
0.0013842098754800398
0.0003515844582028811

