# vtk DataFile Version 2.0
mesh vtk view
ASCII
DATASET UNSTRUCTURED_GRID
POINTS 101 double
0.0 0.0 0.0
1.0 0.0 0.0
0.009999999999981057 6.506394592443988e-14 -0.003959421934039551
0.01999999999996227 1.828968823492259e-13 -0.015588490374714553
0.029999999999942926 2.767396716074162e-13 -0.03451343384208125
0.03999999999992167 3.4840441969135187e-13 -0.06036056497237694
0.04999999999989942 3.9974461997561915e-13 -0.09275637493862916
0.05999999999987808 4.3258423504633147e-13 -0.13132766252045683
0.06999999999986017 4.4882624389973137e-13 -0.17570169595444798
0.07999999999984482 4.5029298720348953e-13 -0.22550640569711886
0.0899999999998295 4.3905686578950596e-13 -0.2803706062349001
0.09999999999981418 4.170251833945633e-13 -0.3399242450788871
0.10999999999979887 3.8630709414729326e-13 -0.40379867708648365
0.11999999999978257 3.4886283505688466e-13 -0.4716269622578582
0.1299999999997604 3.0693048972764335e-13 -0.5430441851621394
0.13999999999973217 2.6334539503533346e-13 -0.617687794156945
0.1499999999997029 2.2000084695475591e-13 -0.6951979585747734
0.15999999999967382 1.7837919274258048e-13 -0.775217942061687
0.1699999999996446 1.4045369629498416e-13 -0.8573944902676003
0.1799999999996154 1.0711701692369861e-13 -0.9413782311027612
0.18999999999958622 7.775559667056134e-14 -1.026824085792404
0.199999999999557 5.241957814541814e-14 -1.113391688981123
0.20999999999952781 3.0803663438095124e-14 -1.200745816160036
0.21999999999949865 1.4292136229289877e-14 -1.2885568167132975
0.22999999999946943 4.346906028892925e-15 -1.3765010509062747
0.23999999999944033 9.531303842247123e-16 -1.4642613291657272
0.24999999999941103 6.099488776143097e-16 -1.5515273520322965
0.25999999999938184 9.506713458559321e-16 -1.6379961491978754
0.2699999999993526 5.252188159296415e-16 -1.7233725160750184
0.2799999999993235 5.348891866258432e-16 -1.8073694463822811
0.2899999999992944 3.8129139257323994e-16 -1.8897085592680343
0.29999999999926513 4.462623200236468e-16 -1.970120519536535
0.30999999999923594 2.759164173419598e-16 -2.048345449583097
0.31999999999920675 1.353327899085156e-16 -2.1241333316905235
0.3299999999991777 -6.641094549503967e-17 -2.197244399386286
0.3399999999991485 -3.5081557754866646e-16 -2.2674495166092608
0.3499999999991192 -4.815977399228038e-16 -2.3345305434861823
0.35999999999908994 -5.394835193911706e-16 -2.398280687571139
0.36999999999906075 -6.375373054029787e-16 -2.4585048394564506
0.37999999999903167 -8.336877520029176e-16 -2.5150198917200894
0.3899999999990025 -1.2399437406186767e-15 -2.5676550402332974
0.3999999999989733 -9.475203530806174e-16 -2.6162520669120197
0.40999999999894404 -1.395912277472286e-15 -2.6606656030574722
0.41999999999891485 -9.21784036716079e-16 -2.7007633724940185
0.4299999999988858 -1.6514016693425717e-15 -2.73642641377696
0.43999999999885653 -1.8752797639064443e-15 -2.767549280808229
0.4499999999988274 -1.8420692956734207e-15 -2.7940402212647415
0.45999999999879804 -1.581206793587242e-15 -2.815821332311687
0.4699999999987688 -2.3019724495367353e-15 -2.832828693141631
0.47999999999873977 -2.0429388421647623e-15 -2.8450124739495513
0.4899999999987105 -1.941534934220493e-15 -2.852337021023981
0.49999999999869227 -1.9445244181593156e-15 -2.854780917704864
0.5099999999987077 -2.3773802345228582e-15 -2.8523370210297054
0.519999999998734 -2.6583476873249773e-15 -2.8450124739608964
0.5299999999987605 -1.9223709383792048e-15 -2.8328286931584397
0.5399999999987868 -2.2537383300914772e-15 -2.8158213323337655
0.5499999999988131 -1.8620833185740995e-15 -2.7940402212918536
0.5599999999988395 -2.6745340702720025e-15 -2.7675492808401088
0.569999999998866 -2.6276359401649577e-15 -2.7364264138133025
0.5799999999988924 -2.3014369323443064e-15 -2.7007633725344844
0.5899999999989187 -2.5451929744321035e-15 -2.6606656031016964
0.599999999998945 -2.252479874315717e-15 -2.6162520669596305
0.6099999999989715 -2.224948281705548e-15 -2.567655040283908
0.6199999999989978 -2.3785139989966996e-15 -2.5150198917733197
0.6299999999990242 -2.255573128410503e-15 -2.4585048395119173
0.6399999999990506 -2.2114030252894384e-15 -2.3982806876284677
0.6499999999990769 -2.500486670341847e-15 -2.3345305435449917
0.6599999999991033 -2.469160023006525e-15 -2.2674495166691737
0.6699999999991296 -2.198897924458519e-15 -2.1972443994469346
0.6799999999991561 -2.436668504715357e-15 -2.1241333317515374
0.6899999999991825 -2.445448505430065e-15 -2.048345449644113
0.6999999999992088 -2.258629859991126e-15 -1.9701205195972102
0.7099999999992351 -2.3548277015434865e-15 -1.8897085593280412
0.7199999999992615 -2.426110304488555e-15 -1.807369446441319
0.7299999999992879 -2.2967893794860797e-15 -1.7233725161328088
0.7399999999993142 -2.2661451187902815e-15 -1.6379961492541666
0.7499999999993405 -2.2751359599287194e-15 -1.551527352086864
0.759999999999367 -2.0278772533033383e-15 -1.4642613292183675
0.7699999999993933 -1.5126438446782958e-15 -1.376501050956841
0.7799999999994197 -1.7220035430026816e-15 -1.2885568167616899
0.789999999999446 -1.8055585267108113e-15 -1.2007458162061793
0.7999999999994724 -1.6303013255765181e-15 -1.1133916890249596
0.8099999999994988 -1.5017583196758926e-15 -1.0268240858339017
0.8199999999995252 -1.6090672961909755e-15 -0.9413782311418964
0.8299999999995517 -1.3447879371829456e-15 -0.8573944903043538
0.839999999999578 -1.2901301484016383e-15 -0.7752179420960571
0.8499999999996044 -1.1554050469013606e-15 -0.695197958606764
0.8599999999996307 -1.0175037707592648e-15 -0.6176877941865524
0.869999999999657 -9.768673112715952e-16 -0.543044185189372
0.8799999999996835 -8.713230509328975e-16 -0.47162696228276685
0.8899999999997098 -6.932745930037462e-16 -0.4037986771091128
0.8999999999997362 -5.517790376525533e-16 -0.33992424509924424
0.9099999999997626 -5.554037176326122e-16 -0.2803706062529915
0.9199999999997889 -3.948392457376848e-16 -0.22550640571295696
0.9299999999998153 -3.3713709023674734e-16 -0.17570169596805166
0.9399999999998417 -2.456888295925754e-16 -0.13132766253184175
0.9499999999998682 -1.8058783128060515e-16 -0.09275637494781853
0.9599999999998945 -1.0947657156067673e-16 -0.06036056497941584
0.9699999999999208 -6.26263527914144e-17 -0.03451343384702839
0.9799999999999472 -3.272391198369978e-17 -0.015588490377635343
0.9899999999999736 -7.821384435040037e-18 -0.003959421935001776

CELLS 100 300
2 0 2
2 2 3
2 3 4
2 4 5
2 5 6
2 6 7
2 7 8
2 8 9
2 9 10
2 10 11
2 11 12
2 12 13
2 13 14
2 14 15
2 15 16
2 16 17
2 17 18
2 18 19
2 19 20
2 20 21
2 21 22
2 22 23
2 23 24
2 24 25
2 25 26
2 26 27
2 27 28
2 28 29
2 29 30
2 30 31
2 31 32
2 32 33
2 33 34
2 34 35
2 35 36
2 36 37
2 37 38
2 38 39
2 39 40
2 40 41
2 41 42
2 42 43
2 43 44
2 44 45
2 45 46
2 46 47
2 47 48
2 48 49
2 49 50
2 50 51
2 51 52
2 52 53
2 53 54
2 54 55
2 55 56
2 56 57
2 57 58
2 58 59
2 59 60
2 60 61
2 61 62
2 62 63
2 63 64
2 64 65
2 65 66
2 66 67
2 67 68
2 68 69
2 69 70
2 70 71
2 71 72
2 72 73
2 73 74
2 74 75
2 75 76
2 76 77
2 77 78
2 78 79
2 79 80
2 80 81
2 81 82
2 82 83
2 83 84
2 84 85
2 85 86
2 86 87
2 87 88
2 88 89
2 89 90
2 90 91
2 91 92
2 92 93
2 93 94
2 94 95
2 95 96
2 96 97
2 97 98
2 98 99
2 99 100
2 100 1

CELL_TYPES 100
3
3
3
3
3
3
3
3
3
3
3
3
3
3
3
3
3
3
3
3
3
3
3
3
3
3
3
3
3
3
3
3
3
3
3
3
3
3
3
3
3
3
3
3
3
3
3
3
3
3
3
3
3
3
3
3
3
3
3
3
3
3
3
3
3
3
3
3
3
3
3
3
3
3
3
3
3
3
3
3
3
3
3
3
3
3
3
3
3
3
3
3
3
3
3
3
3
3
3
3

POINT_DATA 101
SCALARS DISPL float 1
LOOKUP_TABLE default
0.0
0.0
0.0003515844581174384
0.0013842098752206826
0.0030646864964856725
0.005359832036345838
0.00823648006275103
0.011661491458167847
0.015601768791394096
0.020024273434315117
0.024896045257946586
0.030184224742400498
0.03585607733580124
0.04187901989769255
0.04822064906309868
0.05484877136417258
0.06173143494724591
0.06883696272415292
0.07613398679793251
0.08359148400436954
0.09117881241238036
0.09886574862798582
0.10662252574852522
0.11441987181585148
0.12222904861953336
0.13002189070358114
0.13777084443287071
0.14544900697830837
0.153030165082848
0.16048883347373544
0.16780029278978592
0.17494062689616344
0.1818867594629535
0.1886164896878459
0.19510852704744525
0.2013425249661082
0.20729911329576414
0.21295992950489973
0.2183076484797697
0.22332601084594425
0.2279998497234965
0.23231511583445766
0.2362589008866476
0.23981945916356837
0.2429862272557708
0.2457498418749094
0.24810215569762997
0.25003625119242945
0.2515464523887195
0.2526283345534738
0.253278731747059
0.25349574223610444
0.2532787317475673
0.2526283345544812
0.25154645239021206
0.25003625119438994
0.24810215570003746
0.24574984187774024
0.2429862272589979
0.2398194591671616
0.2362589008905746
0.23231511583868536
0.22799984972799053
0.22332601085067094
0.21830764848469497
0.21295992950999035
0.20729911330098624
0.20134252497142827
0.1951085270528307
0.18861648969326372
0.18188675946837152
0.1749406269015512
0.16780029279511435
0.16048883347897783
0.15303016508797962
0.14544900698330684
0.13777084443771614
0.13002189070825543
0.12222904862402349
0.11441987182014857
0.10662252575262261
0.09886574863187837
0.09117881241606524
0.08359148400784462
0.07613398680119611
0.06883696272720487
0.061731434950086574
0.05484877136680163
0.04822064906551686
0.041879019899904356
0.03585607733781064
0.030184224744208153
0.02489604525955304
0.020024273435721492
0.015601768792602059
0.011661491459178793
0.008236480063567017
0.00535983203697087
0.0030646864969249635
0.0013842098754800398
0.0003515844582028811

