# vtk DataFile Version 2.0
mesh vtk view
ASCII
DATASET UNSTRUCTURED_GRID
POINTS 101 double
0.0 0.0 0.0
1.0 0.0 0.0
0.009999999999981357 -0.0016303502085985347 -3.924267669426747e-14
0.019999999999962933 -0.006418790155628179 -1.1161264591618919e-13
0.02999999999994397 -0.014211413937060598 -1.7221470281459704e-13
0.0399999999999231 -0.024854350285471175 -2.2234102253785114e-13
0.049999999999901214 -0.03819380144858423 -2.635644375565504e-13
0.059999999999880316 -0.05407609633566164 -2.9788638042450554e-13
0.06999999999986291 -0.07234775716177624 -3.26651690987158e-13
0.07999999999984804 -0.09285557882079461 -3.506797465149201e-13
0.08999999999983317 -0.11544672021890132 -3.7176261176852017e-13
0.09999999999981826 -0.13996880680184795 -3.9053368732680816e-13
0.1099999999998034 -0.1662700435109243 -4.065694575502883e-13
0.1199999999997875 -0.19419933740503165 -4.224733189324497e-13
0.12999999999976575 -0.22360642918911278 -4.336822412617318e-13
0.13999999999973792 -0.2543420328927835 -4.3272960751535873e-13
0.149999999999709 -0.2862579829470775 -4.191688229089581e-13
0.15999999999968023 -0.3192073879121435 -3.921871487793763e-13
0.16999999999965132 -0.35304479011442713 -3.545205776122241e-13
0.17999999999962238 -0.38762633045816 -3.036996263551515e-13
0.18999999999959347 -0.42280991768315784 -2.4413146179763155e-13
0.19999999999956455 -0.45845540134896756 -1.8186124074134512e-13
0.2099999999995356 -0.49442474783429374 -1.176577247662053e-13
0.21999999999950665 -0.5305822186502612 -6.840145695915725e-14
0.2299999999994776 -0.5667945503767161 -4.7273868509044774e-14
0.23999999999944863 -0.602931135542323 -4.236565076945017e-14
0.2499999999994195 -0.6388642037814586 -3.7882989899449104e-14
0.25999999999939044 -0.6744690026143034 -3.347808970903969e-14
0.26999999999936136 -0.7096239772107331 -2.8556948413108155e-14
0.2799999999993324 -0.7442109485136822 -2.3558290338365346e-14
0.28999999999930337 -0.7781152891136556 -1.837117636160447e-14
0.2999999999992744 -0.8112260962829948 -1.3139509425827695e-14
0.3099999999992454 -0.8434363615962405 -7.751819574537734e-15
0.31999999999921624 -0.874643136581605 -1.9470835985565804e-15
0.32999999999918717 -0.904747693868044 3.371641278923571e-15
0.33999999999915803 -0.933655683312741 8.725677744937627e-15
0.3499999999991287 -0.9612772826149377 1.360693385230909e-14
0.35999999999909943 -0.987527341943966 1.8406358538720972e-14
0.3699999999990702 -1.0123255221319543 2.274714741254528e-14
0.379999999999041 -1.0355964260051305 2.6998779797229818e-14
0.38999999999901175 -1.0572697224516538 3.0514367989170325e-14
0.39999999999898245 -1.07728026284868 3.3864655294538765e-14
0.40999999999895315 -1.09556818949671 3.6614187464388504e-14
0.41999999999892385 -1.1120790357351902 3.93323626582847e-14
0.42999999999889477 -1.1267638174398338 4.120483637285054e-14
0.4399999999988655 -1.139579115629084 4.2766721695275756e-14
0.4499999999988363 -1.150487149934612 4.444940947350942e-14
0.4599999999988069 -1.1594558427185528 4.512582152036238e-14
0.46999999999877756 -1.1664588736484323 4.625327505757034e-14
0.47999999999874843 -1.1714757245692389 4.624784537155269e-14
0.4899999999987191 -1.1744917145409555 4.633585021840242e-14
0.4999999999987007 -1.1754980249388516 4.6033237530069656e-14
0.509999999998716 -1.1744917145430762 4.551872587692071e-14
0.5199999999987422 -1.1714757245734408 4.444795507100268e-14
0.5299999999987685 -1.1664588736546586 4.307101276707401e-14
0.5399999999987947 -1.1594558427267347 4.119760525743868e-14
0.5499999999988208 -1.150487149944666 3.905122198942987e-14
0.559999999998847 -1.1395791156409163 3.705525146608563e-14
0.5699999999988732 -1.1267638174533352 3.4185662956333036e-14
0.5799999999988994 -1.1120790357502337 3.209892347790016e-14
0.5899999999989256 -1.0955681895131575 2.9533157905216956e-14
0.5999999999989517 -1.0772802628663873 2.7274769493149762e-14
0.6099999999989779 -1.0572697224704704 2.532632918221877e-14
0.6199999999990041 -1.035596426024907 2.374779775067261e-14
0.6299999999990304 -1.01232552215254 2.171382001157424e-14
0.6399999999990564 -0.9875273419652141 1.9826297891788586e-14
0.6499999999990825 -0.9612772826367058 1.7132386664320015e-14
0.6599999999991086 -0.9336556833348846 1.5217447461083364e-14
0.6699999999991346 -0.9047476938904244 1.2791702118194407e-14
0.6799999999991606 -0.8746431366040792 1.0626906853192273e-14
0.6899999999991866 -0.843436361618667 8.405777993765803e-15
0.6999999999992125 -0.8112260963052355 6.86881282408871e-15
0.7099999999992385 -0.7781152891355793 4.780731459887083e-15
0.7199999999992643 -0.7442109485351682 2.7524618596483947e-15
0.7299999999992903 -0.709623977231669 8.003647340412698e-16
0.7399999999993163 -0.6744690026345862 -1.1761551003326465e-15
0.7499999999993423 -0.6388642038009937 -3.0848306201852537e-15
0.7599999999993684 -0.6029311355610264 -4.858860738515318e-15
0.7699999999993944 -0.5667945503945154 -6.6794115676928776e-15
0.7799999999994205 -0.5305822186671011 -8.497519905067439e-15
0.7899999999994465 -0.49442474785012613 -9.420952093800523e-15
0.7999999999994725 -0.4584554013637396 -1.0795936150072455e-14
0.8099999999994987 -0.4228099176968299 -1.1904797427762085e-14
0.8199999999995249 -0.38762633047070477 -1.25874841722807e-14
0.8299999999995512 -0.35304479012582496 -1.3171824307396985e-14
0.8399999999995774 -0.3192073879223946 -1.3314307307588515e-14
0.8499999999996039 -0.2862579829561957 -1.3267048899898661e-14
0.8599999999996301 -0.25434203290078966 -1.3169272652652968e-14
0.8699999999996563 -0.22360642919603893 -1.2590478583778903e-14
0.8799999999996827 -0.19419933741093295 -1.1968017659460271e-14
0.8899999999997089 -0.16627004351586236 -1.1063242004300156e-14
0.8999999999997353 -0.13996880680587737 -9.998805251257478e-15
0.9099999999997617 -0.11544672022208524 -8.758419016380461e-15
0.9199999999997879 -0.09285557882320566 -7.576143512458413e-15
0.9299999999998143 -0.07234775716349734 -6.208778490486448e-15
0.9399999999998407 -0.054076096336782536 -4.864068802129568e-15
0.9499999999998673 -0.03819380144920594 -3.59336508277829e-15
0.9599999999998937 -0.024854350285712194 -2.4626051650570316e-15
0.96999999999992 -0.014211413937053366 -1.4759962964363954e-15
0.9799999999999467 -0.006418790155516364 -6.953204503621222e-16
0.9899999999999732 -0.0016303502085352425 -1.8296131502225096e-16

CELLS 100 300
2 0 2
2 2 3
2 3 4
2 4 5
2 5 6
2 6 7
2 7 8
2 8 9
2 9 10
2 10 11
2 11 12
2 12 13
2 13 14
2 14 15
2 15 16
2 16 17
2 17 18
2 18 19
2 19 20
2 20 21
2 21 22
2 22 23
2 23 24
2 24 25
2 25 26
2 26 27
2 27 28
2 28 29
2 29 30
2 30 31
2 31 32
2 32 33
2 33 34
2 34 35
2 35 36
2 36 37
2 37 38
2 38 39
2 39 40
2 40 41
2 41 42
2 42 43
2 43 44
2 44 45
2 45 46
2 46 47
2 47 48
2 48 49
2 49 50
2 50 51
2 51 52
2 52 53
2 53 54
2 54 55
2 55 56
2 56 57
2 57 58
2 58 59
2 59 60
2 60 61
2 61 62
2 62 63
2 63 64
2 64 65
2 65 66
2 66 67
2 67 68
2 68 69
2 69 70
2 70 71
2 71 72
2 72 73
2 73 74
2 74 75
2 75 76
2 76 77
2 77 78
2 78 79
2 79 80
2 80 81
2 81 82
2 82 83
2 83 84
2 84 85
2 85 86
2 86 87
2 87 88
2 88 89
2 89 90
2 90 91
2 91 92
2 92 93
2 93 94
2 94 95
2 95 96
2 96 97
2 97 98
2 98 99
2 99 100
2 100 1

CELL_TYPES 100
3
3
3
3
3
3
3
3
3
3
3
3
3
3
3
3
3
3
3
3
3
3
3
3
3
3
3
3
3
3
3
3
3
3
3
3
3
3
3
3
3
3
3
3
3
3
3
3
3
3
3
3
3
3
3
3
3
3
3
3
3
3
3
3
3
3
3
3
3
3
3
3
3
3
3
3
3
3
3
3
3
3
3
3
3
3
3
3
3
3
3
3
3
3
3
3
3
3
3
3

POINT_DATA 101
SCALARS DISPL float 1
LOOKUP_TABLE default
0.0
0.0
0.0003515844582169249
0.0013842098755055742
0.003064686496929367
0.005359832036923327
0.008236480063438904
0.01166149145894428
0.015601768792238868
0.020024273435209582
0.02489604525887372
0.03018422474334474
0.035856077336748345
0.04187901989863015
0.04822064906401611
0.054848771365061035
0.061731434948097706
0.06883696272496163
0.07613398679869399
0.08359148400508222
0.09117881241304567
0.09886574862860695
0.1066225257491074
0.11441987181640047
0.12222904862005267
0.13002189070407402
0.13777084443333945
0.14544900697875293
0.15303016508326855
0.1604888334741321
0.16780029279015873
0.17494062689651257
0.1818867594632791
0.18861648968814798
0.19510852704772327
0.20134252496636132
0.2072991132959913
0.21295992950510012
0.21830764847994183
0.22332601084608764
0.22799984972361073
0.23231511583454278
0.23625890088670382
0.23981945916359637
0.24298622725577154
0.2457498418748839
0.24810215569757935
0.25003625119235434
0.25154645238862033
0.2526283345533505
0.25327873174691123
0.2534957422359316
0.2532787317473686
0.25262833455425665
0.25154645238996304
0.25003625119411876
0.2481021556997475
0.24574984187743554
0.24298622725868307
0.23981945916684053
0.2362589008902507
0.2323151158383614
0.22799984972766849
0.22332601085035242
0.21830764848438114
0.21295992950968226
0.20729911330068557
0.20134252497113658
0.1951085270525496
0.18861648969299455
0.18188675946811536
0.17494062690130877
0.16780029279488656
0.16048883347876555
0.15303016508778336
0.1454490069831269
0.1377708444375522
0.1300218907081074
0.12222904862389107
0.11441987182003197
0.10662252575252165
0.09886574863179252
0.09117881241599404
0.0835914840077875
0.07613398680115192
0.06883696272717228
0.06173143495006405
0.05484877136678755
0.048220649065509734
0.04187901989990277
0.035856077337813236
0.030184224744213683
0.024896045259560334
0.020024273435729528
0.015601768792610023
0.011661491459186
0.008236480063572976
0.005359832036975303
0.0030646864969278076
0.0013842098754814614
0.000351584458203276

