# vtk DataFile Version 2.0
mesh vtk view
ASCII
DATASET UNSTRUCTURED_GRID
POINTS 101 double
0.0 0.0 0.0
1.0 0.0 0.0
0.00999999999998232 -0.006754308007051068 -1.625768034476794e-13
0.01999999999996505 -0.026592130644745297 -4.623952473670692e-13
0.02999999999994731 -0.05887585773925101 -7.13460911660473e-13
0.039999999999927656 -0.10296802261123765 -9.21127093371097e-13
0.04999999999990696 -0.15823146314413458 -1.0919098127342798e-12
0.059999999999887456 -0.22402954196202665 -1.234100718901522e-12
0.06999999999987165 -0.2997264225273585 -1.3532712912325108e-12
0.07999999999985834 -0.38468739797186313 -1.452816092704668e-12
0.08999999999984488 -0.4782792694783051 -1.5401593916124397e-12
0.09999999999983127 -0.5798707710362269 -1.617925276068204e-12
0.10999999999981783 -0.6888330374024003 -1.6843591812797646e-12
0.11999999999980321 -0.8045401121065592 -1.750246607005862e-12
0.12999999999978287 -0.9263694923548952 -1.796683570941459e-12
0.13999999999975624 -1.053702707698674 -1.7927369454207707e-12
0.1499999999997285 -1.1859259293521773 -1.7365565520513967e-12
0.15999999999970074 -1.3224306070645937 -1.624775330657415e-12
0.16999999999967275 -1.4626141304740543 -1.4687281072506418e-12
0.1799999999996446 -1.6058805118980903 -1.2581841663284839e-12
0.18999999999961656 -1.7516410875445099 -1.0114017703044728e-12
0.19999999999958865 -1.8993152341600072 -7.534251402141436e-13
0.2099999999995605 -2.048331098170644 -4.874391454599932e-13
0.21999999999953224 -2.198126334408224 -2.8337746454507987e-13
0.22999999999950366 -2.34814885156068 -1.9584888382318537e-13
0.23999999999947516 -2.4978575615324794 -1.7551483890200774e-13
0.24999999999944647 -2.6467231299517553 -1.569438152977176e-13
0.2599999999994179 -2.794228725116398 -1.3869494308030721e-13
0.26999999999938923 -2.939870762730178 -1.18307357711448e-13
0.27999999999936076 -3.0831596438423956 -9.759863140179923e-14
0.2899999999993323 -3.2236204834708566 -7.610915921236131e-14
0.29999999999930393 -3.360793827458119 -5.443511047842899e-14
0.30999999999927547 -3.494236355184422 -3.211468109451344e-14
0.31999999999924655 -3.6235215658380753 -8.066489194020114e-15
0.3299999999992176 -3.7482404460247514 1.39682281555405e-14
0.33999999999918845 -3.8680021165813527 3.614923637188443e-14
0.3499999999991591 -3.982434456547596 5.6371583102423336e-14
0.3599999999991297 -4.091184702339285 7.625491394612969e-14
0.3699999999991003 -4.193920020260951 9.423818213768753e-14
0.3799999999990709 -4.290328050592681 1.1185208773138061e-13
0.3899999999990414 -4.38011742158542 1.2641666738370553e-13
0.39999999999901176 -4.463018231801671 1.4029642907737478e-13
0.4099999999989822 -4.53878249934351 1.5168734806675228e-13
0.4199999999989527 -4.607184576617214 1.6294835958432225e-13
0.4299999999989235 -4.668021529393594 1.7070575068752354e-13
0.43999999999889416 -4.7211134790347735 1.7717641845185658e-13
0.4499999999988647 -4.766303906871961 1.8414755353311034e-13
0.4599999999988351 -4.803459919834002 1.8694983201292973e-13
0.46999999999880543 -4.832472476543502 1.9162071095279128e-13
0.4799999999987761 -4.853256573215415 1.915982165392896e-13
0.48999999999874655 -4.865751388812527 1.9196280804766704e-13
0.4999999999987278 -4.869920389032382 1.9070912691028845e-13
0.5099999999987426 -4.865751388821312 1.8857757863295708e-13
0.5199999999987683 -4.853256573232823 1.841415281512967e-13
0.5299999999987941 -4.832472476569297 1.7843705289216364e-13
0.5399999999988199 -4.803459919867898 1.7067579320938868e-13
0.5499999999988453 -4.766303906913613 1.6178363395620937e-13
0.5599999999988708 -4.721113479083793 1.5351461321664035e-13
0.5699999999988964 -4.668021529449528 1.4162631796195105e-13
0.5799999999989219 -4.607184576679537 1.3298125440844344e-13
0.5899999999989474 -4.538782499411649 1.2235165417875588e-13
0.5999999999989729 -4.46301823187503 1.1299547361447751e-13
0.6099999999989987 -4.380117421663374 1.0492336375490626e-13
0.6199999999990243 -4.290328050674612 9.838373353850075e-14
0.6299999999990501 -4.193920020346234 8.995725433366464e-14
0.6399999999990754 -4.091184702427313 8.21375198374098e-14
0.6499999999991005 -3.9824344566377783 7.09770304664686e-14
0.6599999999991255 -3.868002116673091 6.304371091020247e-14
0.6699999999991505 -3.74824044611747 5.299419448966251e-14
0.6799999999991753 -3.623521565931183 4.4025756963225106e-14
0.6899999999992 -3.4942363552773323 3.482393740274401e-14
0.6999999999992245 -3.360793827550259 2.845651027122464e-14
0.7099999999992491 -3.223620483561683 1.9805887476675044e-14
0.7199999999992734 -3.0831596439314093 1.1403056275686199e-14
0.7299999999992981 -2.9398707628169123 3.31579675531383e-15
0.7399999999993229 -2.7942287252004268 -4.8726425585209605e-15
0.749999999999348 -2.6467231300326866 -1.27800125693389e-14
0.7599999999993732 -2.497857561609965 -2.0129565916706305e-14
0.769999999999398 -2.3481488516344196 -2.7671847923299047e-14
0.7799999999994232 -2.1981263344779887 -3.520401103527937e-14
0.7899999999994479 -2.0483310982362357 -3.902965867431643e-14
0.7999999999994729 -1.8993152342212056 -4.472602119315729e-14
0.8099999999994982 -1.7516410876011512 -4.931987505787146e-14
0.8199999999995239 -1.6058805119500617 -5.214814871373429e-14
0.8299999999995498 -1.4626141305212739 -5.45689864163589e-14
0.8399999999995759 -1.3224306071070624 -5.51592731314381e-14
0.8499999999996021 -1.185925929389953 -5.496348829958013e-14
0.8599999999996281 -1.0537027077318422 -5.4558415275276545e-14
0.869999999999654 -0.9263694923835892 -5.2160554132798274e-14
0.8799999999996803 -0.8045401121310074 -4.9581787446335375e-14
0.8899999999997064 -0.688833037422858 -4.583343116067204e-14
0.8999999999997326 -0.5798707710529202 -4.1423621755209525e-14
0.9099999999997587 -0.4782792694914957 -3.62848787821476e-14
0.9199999999997848 -0.3846873979818518 -3.138688026589912e-14
0.9299999999998111 -0.2997264225344888 -2.5722082317729555e-14
0.9399999999998376 -0.22402954196667035 -2.0151142180251057e-14
0.9499999999998643 -0.15823146314671024 -1.4886798200081476e-14
0.959999999999891 -0.10296802261223617 -1.020222139809341e-14
0.9699999999999178 -0.05887585773922105 -6.114841799522205e-15
0.9799999999999449 -0.026592130644282064 -2.8806132943573614e-15
0.9899999999999722 -0.006754308006788857 -7.579825908064678e-16

CELLS 100 300
2 0 2
2 2 3
2 3 4
2 4 5
2 5 6
2 6 7
2 7 8
2 8 9
2 9 10
2 10 11
2 11 12
2 12 13
2 13 14
2 14 15
2 15 16
2 16 17
2 17 18
2 18 19
2 19 20
2 20 21
2 21 22
2 22 23
2 23 24
2 24 25
2 25 26
2 26 27
2 27 28
2 28 29
2 29 30
2 30 31
2 31 32
2 32 33
2 33 34
2 34 35
2 35 36
2 36 37
2 37 38
2 38 39
2 39 40
2 40 41
2 41 42
2 42 43
2 43 44
2 44 45
2 45 46
2 46 47
2 47 48
2 48 49
2 49 50
2 50 51
2 51 52
2 52 53
2 53 54
2 54 55
2 55 56
2 56 57
2 57 58
2 58 59
2 59 60
2 60 61
2 61 62
2 62 63
2 63 64
2 64 65
2 65 66
2 66 67
2 67 68
2 68 69
2 69 70
2 70 71
2 71 72
2 72 73
2 73 74
2 74 75
2 75 76
2 76 77
2 77 78
2 78 79
2 79 80
2 80 81
2 81 82
2 82 83
2 83 84
2 84 85
2 85 86
2 86 87
2 87 88
2 88 89
2 89 90
2 90 91
2 91 92
2 92 93
2 93 94
2 94 95
2 95 96
2 96 97
2 97 98
2 98 99
2 99 100
2 100 1

CELL_TYPES 100
3
3
3
3
3
3
3
3
3
3
3
3
3
3
3
3
3
3
3
3
3
3
3
3
3
3
3
3
3
3
3
3
3
3
3
3
3
3
3
3
3
3
3
3
3
3
3
3
3
3
3
3
3
3
3
3
3
3
3
3
3
3
3
3
3
3
3
3
3
3
3
3
3
3
3
3
3
3
3
3
3
3
3
3
3
3
3
3
3
3
3
3
3
3
3
3
3
3
3
3

POINT_DATA 101
SCALARS DISPL float 1
LOOKUP_TABLE default
0.0
0.0
0.0003515844582169249
0.0013842098755055742
0.003064686496929367
0.005359832036923327
0.008236480063438904
0.01166149145894428
0.015601768792238868
0.020024273435209582
0.02489604525887372
0.03018422474334474
0.035856077336748345
0.04187901989863015
0.04822064906401611
0.054848771365061035
0.061731434948097706
0.06883696272496163
0.07613398679869399
0.08359148400508222
0.09117881241304567
0.09886574862860695
0.1066225257491074
0.11441987181640047
0.12222904862005267
0.13002189070407402
0.13777084443333945
0.14544900697875293
0.15303016508326855
0.1604888334741321
0.16780029279015873
0.17494062689651257
0.1818867594632791
0.18861648968814798
0.19510852704772327
0.20134252496636132
0.2072991132959913
0.21295992950510012
0.21830764847994183
0.22332601084608764
0.22799984972361073
0.23231511583454278
0.23625890088670382
0.23981945916359637
0.24298622725577154
0.2457498418748839
0.24810215569757935
0.25003625119235434
0.25154645238862033
0.2526283345533505
0.25327873174691123
0.2534957422359316
0.2532787317473686
0.25262833455425665
0.25154645238996304
0.25003625119411876
0.2481021556997475
0.24574984187743554
0.24298622725868307
0.23981945916684053
0.2362589008902507
0.2323151158383614
0.22799984972766849
0.22332601085035242
0.21830764848438114
0.21295992950968226
0.20729911330068557
0.20134252497113658
0.1951085270525496
0.18861648969299455
0.18188675946811536
0.17494062690130877
0.16780029279488656
0.16048883347876555
0.15303016508778336
0.1454490069831269
0.1377708444375522
0.1300218907081074
0.12222904862389107
0.11441987182003197
0.10662252575252165
0.09886574863179252
0.09117881241599404
0.0835914840077875
0.07613398680115192
0.06883696272717228
0.06173143495006405
0.05484877136678755
0.048220649065509734
0.04187901989990277
0.035856077337813236
0.030184224744213683
0.024896045259560334
0.020024273435729528
0.015601768792610023
0.011661491459186
0.008236480063572976
0.005359832036975303
0.0030646864969278076
0.0013842098754814614
0.000351584458203276

