# vtk DataFile Version 2.0
mesh vtk view
ASCII
DATASET UNSTRUCTURED_GRID
POINTS 101 double
0.0 0.0 0.0
1.0 0.5458127623256924 0.0
0.009999999999981052 0.005197272832669542 0.0
0.01999999999996226 0.019761330451381724 0.0
0.02999999999994291 0.0421530568800949 0.0
0.03999999999992165 0.07084175068285374 0.0
0.04999999999989939 0.10431396716888518 0.0
0.05999999999987805 0.14108487699518676 0.0
0.06999999999986013 0.17971153739531548 0.0
0.07999999999984476 0.21880748382042825 0.0
0.08999999999982944 0.2570580665978199 0.0
0.09999999999981413 0.29323597982103117 0.0
0.1099999999997988 0.3262164583843758 0.0
0.1199999999997825 0.35499165394064186 0.0
0.1299999999997603 0.3786837414649693 0.0
0.1399999999997321 0.39655635472476697 0.0
0.1499999999997028 0.40802400077988854 0.0
0.1599999999996737 0.41265916000715913 0.0
0.1699999999996445 0.41019683825385306 0.0
0.1799999999996153 0.40053640065542356 0.0
0.1899999999995861 0.3837405813907321 0.0
0.1999999999995569 0.36003162911161024 0.0
0.2099999999995277 0.329784612848686 0.0
0.2199999999994985 0.2935179767220876 0.0
0.2299999999994693 0.2518814926451507 0.0
0.2399999999994402 0.2056418173058394 0.0
0.2499999999994109 0.15566591200745086 0.0
0.2599999999993817 0.10290263049679121 0.0
0.2699999999993525 0.04836281985208119 0.0
0.2799999999993234 -0.006901687886598519 0.0
0.2899999999992942 -0.06181979097183939 0.0
0.299999999999265 -0.11532312139203273 0.0
0.3099999999992358 -0.16636791012942612 0.0
0.3199999999992066 -0.21395628894157764 0.0
0.3299999999991775 -0.2571566131635628 0.0
0.3399999999991483 -0.29512240829703845 0.0
0.349999999999119 -0.32710956951281916 0.0
0.3599999999990898 -0.3524914770986278 0.0
0.3699999999990606 -0.3707717316339458 0.0
0.3799999999990315 -0.381594259443785 0.0
0.3899999999990023 -0.3847505907239694 0.0
0.3999999999989731 -0.38018416859256693 0.0
0.4099999999989439 -0.3679916060837366 0.0
0.4199999999989147 -0.3484208685765846 0.0
0.4299999999988856 -0.3218664201289464 0.0
0.4399999999988564 -0.2888614324399189 0.0
0.4499999999988272 -0.250067213486426 0.0
0.4599999999987979 -0.20626006809923783 0.0
0.4699999999987687 -0.15831585375485727 0.0
0.4799999999987396 -0.10719254064123862 0.0
0.4899999999987104 -0.05391112468721341 0.0
0.4999999999986921 0.0004647250655859225 0.0
0.5099999999987076 0.054849878278356 0.0
0.5199999999987339 0.10815939086030858 0.0
0.5299999999987604 0.15933015624297064 0.0
0.5399999999987867 0.2073421284561095 0.0
0.549999999998813 0.2512386937732025 0.0
0.5599999999988394 0.2901457848375431 0.0
0.5699999999988659 0.32328935643335405 0.0
0.5799999999988923 0.35001087492957134 0.0
0.5899999999989186 0.36978051324436617 0.0
0.5999999999989449 0.38220778916537795 0.0
0.6099999999989714 0.38704943610085785 0.0
0.6199999999989977 0.3842143508120755 0.0
0.6299999999990241 0.37376552128651835 0.0
0.6399999999990504 0.35591889849013625 0.0
0.6499999999990768 0.3310392370832798 0.0
0.6599999999991032 0.2996329910825589 0.0
0.6699999999991295 0.26233840969244004 0.0
0.679999999999156 0.21991303494425601 0.0
0.6899999999991824 0.17321885525156203 0.0
0.6999999999992087 0.12320541648451534 0.0
0.7099999999992351 0.0708912337497694 0.0
0.7199999999992615 0.01734388192338507 0.0
0.7299999999992879 -0.036340829555005824 0.0
0.7399999999993142 -0.08906017258305718 0.0
0.7499999999993405 -0.13972587070263193 0.0
0.759999999999367 -0.18728508476393707 0.0
0.7699999999993933 -0.230740580644791 0.0
0.7799999999994197 -0.2691696598235763 0.0
0.789999999999446 -0.301741455732921 0.0
0.7999999999994724 -0.32773222848462996 0.0
0.8099999999994988 -0.3465383271041932 0.0
0.8199999999995252 -0.3576865310486875 0.0
0.8299999999995517 -0.3608415305752527 0.0
0.839999999999578 -0.35581035743583495 0.0
0.8499999999996044 -0.3425436322577512 0.0
0.8599999999996307 -0.3211335516141357 0.0
0.869999999999657 -0.2918085949262433 0.0
0.8799999999996835 -0.2549249876722061 0.0
0.8899999999997098 -0.21095501159718505 0.0
0.8999999999997362 -0.1604723034367368 0.0
0.9099999999997626 -0.10413432982208395 0.0
0.9199999999997889 -0.04266226633284665 0.0
0.9299999999998153 0.023181458025016033 0.0
0.9399999999998417 0.09261766434596092 0.0
0.9499999999998682 0.16487667244442517 0.0
0.9599999999998945 0.2392259850809084 0.0
0.9699999999999208 0.3149991021979998 0.0
0.9799999999999472 0.3916251744973059 0.0
0.9899999999999736 0.4686592321058896 0.0

CELLS 100 300
2 0 2
2 2 3
2 3 4
2 4 5
2 5 6
2 6 7
2 7 8
2 8 9
2 9 10
2 10 11
2 11 12
2 12 13
2 13 14
2 14 15
2 15 16
2 16 17
2 17 18
2 18 19
2 19 20
2 20 21
2 21 22
2 22 23
2 23 24
2 24 25
2 25 26
2 26 27
2 27 28
2 28 29
2 29 30
2 30 31
2 31 32
2 32 33
2 33 34
2 34 35
2 35 36
2 36 37
2 37 38
2 38 39
2 39 40
2 40 41
2 41 42
2 42 43
2 43 44
2 44 45
2 45 46
2 46 47
2 47 48
2 48 49
2 49 50
2 50 51
2 51 52
2 52 53
2 53 54
2 54 55
2 55 56
2 56 57
2 57 58
2 58 59
2 59 60
2 60 61
2 61 62
2 62 63
2 63 64
2 64 65
2 65 66
2 66 67
2 67 68
2 68 69
2 69 70
2 70 71
2 71 72
2 72 73
2 73 74
2 74 75
2 75 76
2 76 77
2 77 78
2 78 79
2 79 80
2 80 81
2 81 82
2 82 83
2 83 84
2 84 85
2 85 86
2 86 87
2 87 88
2 88 89
2 89 90
2 90 91
2 91 92
2 92 93
2 93 94
2 94 95
2 95 96
2 96 97
2 97 98
2 98 99
2 99 100
2 100 1

CELL_TYPES 100
3
3
3
3
3
3
3
3
3
3
3
3
3
3
3
3
3
3
3
3
3
3
3
3
3
3
3
3
3
3
3
3
3
3
3
3
3
3
3
3
3
3
3
3
3
3
3
3
3
3
3
3
3
3
3
3
3
3
3
3
3
3
3
3
3
3
3
3
3
3
3
3
3
3
3
3
3
3
3
3
3
3
3
3
3
3
3
3
3
3
3
3
3
3
3
3
3
3
3
3

POINT_DATA 101
SCALARS MODE5_4.0139_Hz float 1
LOOKUP_TABLE default
0.0
0.25471262241865644
0.0024253939885791193
0.009221954210644803
0.019671426544044284
0.03305948365199841
0.04867985134547974
0.06583960926442048
0.08386538411781387
0.10211015911619983
0.11996043107898258
0.13684345724981453
0.152234347246042
0.16566277183896616
0.17671907935031897
0.18505963220489122
0.19041120036394796
0.19257427467000757
0.1914251911851314
0.18691698697253095
0.17907893798234162
0.16801476025208475
0.15389948599605344
0.13697505580364086
0.11754469656773697
0.09596618140939171
0.07264409227014372
0.048021227565169224
0.02256931593097122
-0.0032207876804126413
-0.028849235786858378
-0.053817456649615264
-0.07763835806039884
-0.09984626817273622
-0.12000641947632928
-0.1377237905386179
-0.15265113243931558
-0.16449602264602628
-0.17302680809584134
-0.1780773210737663
-0.17955027567118567
-0.1774192786765312
-0.1717294161724104
-0.16259640533573946
-0.15020432939350828
-0.13480200180529547
-0.11669803296033211
-0.09625469844631097
-0.07388073175226671
-0.050023185632578016
-0.02515852485403292
0.00021687169727343047
0.025596609863232797
0.05047438240147733
0.07435407291338629
0.09675965994618442
0.11724472376082781
0.13540136625752008
0.1508683663355652
0.1633384083004666
0.17256423951403752
0.17836363494384302
0.1806230701804003
0.17930003037896852
0.17442390993370854
0.16609548596206355
0.15448497730553054
0.13982872917186082
0.12242459118980534
0.10262608297398612
0.08083546578406227
0.057495861026107146
0.03308257574989238
0.008093811564246364
-0.01695905379233605
-0.04156141387209334
-0.06520540632789489
-0.08739970622317061
-0.10767893763423578
-0.12561250791766893
-0.14081267934202976
-0.15294170662616063
-0.1617178859819568
-0.16692038115605412
-0.16839271426845123
-0.16604483347005627
-0.15985369505361718
-0.14986232408659664
-0.1361773442989135
-0.1189649942470295
-0.09844567207868633
-0.07488707493714382
-0.04859602058363917
-0.0199090576219951
0.01081801374500748
0.04322157669478175
0.07694244714073173
0.11163879303775723
0.1469995810257332
0.18275841476540938
0.2187076416494151

