# vtk DataFile Version 2.0
mesh vtk view
ASCII
DATASET UNSTRUCTURED_GRID
POINTS 101 double
0.0 0.0 0.0
1.0 0.0 0.0
0.009999999999981059 9.568227341829397e-14 -0.005822679314764046
0.019999999999962274 2.68966003454744e-13 -0.022924250551050816
0.029999999999942933 4.069701053050239e-13 -0.050755049767766555
0.03999999999992168 5.123594407225763e-13 -0.08876553672408376
0.04999999999989943 5.878597352582636e-13 -0.1364064337332782
0.059999999999878095 6.361532868328405e-13 -0.19312891547126007
0.0699999999998602 6.600385939701933e-13 -0.25838484699183534
0.07999999999984485 6.621955694168965e-13 -0.3316270672016454
0.08999999999982952 6.45671861455156e-13 -0.4123097150513238
0.09999999999981422 6.132723285214167e-13 -0.49988859570424576
0.1099999999997989 5.680986678636667e-13 -0.5938215839507114
0.11999999999978261 5.13033580966007e-13 -0.6935690621439092
0.12999999999976045 4.513683672465344e-13 -0.7985943899443226
0.13999999999973223 3.872726397578434e-13 -0.908364403171978
0.14999999999970293 3.235306572864058e-13 -1.0223499390805493
0.15999999999967388 2.623223422685007e-13 -1.1400263853848343
0.16999999999964463 2.0654955337497675e-13 -1.2608742503935302
0.17999999999961547 1.5752502488779211e-13 -1.384379751621708
0.18999999999958628 1.14346465692002e-13 -1.5100354202829473
0.19999999999955706 7.708761491973258e-14 -1.6373407190898872
0.20999999999952787 4.5299505056022245e-14 -1.7658026708235826
0.2199999999994987 2.101784739601453e-14 -1.8949364951666146
0.2299999999994695 6.392508866019008e-15 -2.024266251332757
0.23999999999944038 1.4016623297422243e-15 -2.1533254840672464
0.24999999999941108 8.969836435504554e-16 -2.2816578706357307
0.25999999999938195 1.398046096846959e-15 -2.4088178664674644
0.2699999999993527 7.723806116612377e-16 -2.534371347169145
0.2799999999993236 7.866017450380048e-16 -2.6578962446798258
0.28999999999929443 5.607226361371176e-16 -2.7789831753941683
0.29999999999926524 6.562681176818335e-16 -2.8972360581419636
0.309999999999236 4.057594372675881e-16 -3.012272719975143
0.3199999999992068 1.9901880868899356e-16 -3.1237254877801823
0.32999999999917773 -9.766315513976424e-17 -3.2312417638033617
0.33999999999914854 -5.159052611009801e-16 -3.3344845832489134
0.34999999999911924 -7.082319704747117e-16 -3.433133152185563
0.35999999999909005 -7.933581167517216e-16 -3.526883364075205
0.3699999999990608 -9.375548608867336e-16 -3.6154482933183103
0.3799999999990317 -1.226011400004291e-15 -3.69855866429425
0.38999999999900253 -1.823446677380407e-15 -3.775963294460732
0.39999999999897334 -1.3934122839420846e-15 -3.8474295101647353
0.4099999999989441 -2.0528121727533623e-15 -3.912743533908048
0.4199999999989149 -1.355564759876587e-15 -3.971710841902969
0.42999999999888583 -2.428531866680253e-15 -4.024156490848472
0.43999999999885664 -2.7577643586859483e-15 -4.069925412953278
0.44999999999882745 -2.7089254348138545e-15 -4.108882678330502
0.4599999999987981 -2.3253041082165328e-15 -4.140913723987776
0.4699999999987689 -3.3852536022599055e-15 -4.165924548737693
0.4799999999987398 -3.004321826712886e-15 -4.183841873455223
0.4899999999987106 -2.855198432677196e-15 -4.1946132662117375
0.4999999999986923 -2.8595947325872294e-15 -4.198207231918918
0.5099999999987078 -3.4961474037100865e-15 -4.194613266220156
0.5199999999987341 -3.909334834301438e-15 -4.183841873471907
0.5299999999987606 -2.827016085851772e-15 -4.165924548762412
0.5399999999987869 -3.314321073663938e-15 -4.140913724020244
0.5499999999988132 -2.7383578214324998e-15 -4.108882678370374
0.5599999999988395 -3.9331383386352984e-15 -4.069925413000161
0.569999999998866 -3.8641705002425855e-15 -4.024156490901916
0.5799999999988924 -3.3844660769769216e-15 -3.9717108419624774
0.5899999999989187 -3.7429308447530945e-15 -3.912743533973084
0.599999999998945 -3.3124704034054667e-15 -3.8474295102347513
0.6099999999989715 -3.2719827672140413e-15 -3.7759632945351593
0.6199999999989978 -3.497814704406912e-15 -3.6985586643725297
0.6299999999990242 -3.3170193064860346e-15 -3.6154482933998793
0.6399999999990506 -3.252063272484469e-15 -3.526883364159512
0.6499999999990769 -3.677186279914481e-15 -3.4331331522720476
0.6599999999991033 -3.6311176808919486e-15 -3.3344845833370207
0.6699999999991296 -3.2336734183213522e-15 -3.2312417638925517
0.6799999999991561 -3.583336036346114e-15 -3.1237254878699083
0.6899999999991825 -3.596247802103037e-15 -3.0122727200648725
0.6999999999992088 -3.3215144999869505e-15 -2.8972360582311922
0.7099999999992352 -3.4629819140345397e-15 -2.778983175482414
0.7199999999992616 -3.567809271306699e-15 -2.657896244766646
0.729999999999288 -3.377631440420706e-15 -2.5343713472541314
0.7399999999993142 -3.3325663511621794e-15 -2.4088178665502453
0.7499999999993405 -3.345788176365764e-15 -2.2816578707159767
0.759999999999367 -2.982172431328439e-15 -2.1533254841446583
0.7699999999993933 -2.2244762421739647e-15 -2.0242662514071195
0.7799999999994197 -2.5323581514745324e-15 -1.8949364952377796
0.789999999999446 -2.6552331275158993e-15 -1.7658026708914405
0.7999999999994724 -2.397501949377233e-15 -1.6373407191543528
0.8099999999994988 -2.208468117170431e-15 -1.5100354203439734
0.8199999999995252 -2.3662754355749643e-15 -1.3843797516792598
0.8299999999995517 -1.9776293193866854e-15 -1.2608742504475794
0.839999999999578 -1.897250218237704e-15 -1.1400263854353783
0.8499999999996044 -1.6991250689725893e-15 -1.0223499391275943
0.8599999999996307 -1.4963290746459777e-15 -0.9083644032155184
0.869999999999657 -1.4365695753994049e-15 -0.7985943899843707
0.8799999999996835 -1.2813574278424964e-15 -0.6935690621805396
0.8899999999997098 -1.019521460299627e-15 -0.5938215839839895
0.8999999999997362 -8.1143976125375495e-16 -0.4998885957341828
0.9099999999997626 -8.167701729891358e-16 -0.4123097150779287
0.9199999999997889 -5.806459496142425e-16 -0.3316270672249368
0.9299999999998153 -4.957898385834521e-16 -0.2583848470118407
0.9399999999998417 -3.613071023420227e-16 -0.19312891548800262
0.9499999999998682 -2.6557034011853703e-16 -0.13640643374679198
0.9599999999998945 -1.609949581774658e-16 -0.08876553673443507
0.9699999999999208 -9.209757763443295e-17 -0.05075504977504176
0.9799999999999472 -4.81233999760291e-17 -0.022924250555346096
0.9899999999999736 -1.150203593388241e-17 -0.005822679316179084

CELLS 100 300
2 0 2
2 2 3
2 3 4
2 4 5
2 5 6
2 6 7
2 7 8
2 8 9
2 9 10
2 10 11
2 11 12
2 12 13
2 13 14
2 14 15
2 15 16
2 16 17
2 17 18
2 18 19
2 19 20
2 20 21
2 21 22
2 22 23
2 23 24
2 24 25
2 25 26
2 26 27
2 27 28
2 28 29
2 29 30
2 30 31
2 31 32
2 32 33
2 33 34
2 34 35
2 35 36
2 36 37
2 37 38
2 38 39
2 39 40
2 40 41
2 41 42
2 42 43
2 43 44
2 44 45
2 45 46
2 46 47
2 47 48
2 48 49
2 49 50
2 50 51
2 51 52
2 52 53
2 53 54
2 54 55
2 55 56
2 56 57
2 57 58
2 58 59
2 59 60
2 60 61
2 61 62
2 62 63
2 63 64
2 64 65
2 65 66
2 66 67
2 67 68
2 68 69
2 69 70
2 70 71
2 71 72
2 72 73
2 73 74
2 74 75
2 75 76
2 76 77
2 77 78
2 78 79
2 79 80
2 80 81
2 81 82
2 82 83
2 83 84
2 84 85
2 85 86
2 86 87
2 87 88
2 88 89
2 89 90
2 90 91
2 91 92
2 92 93
2 93 94
2 94 95
2 95 96
2 96 97
2 97 98
2 98 99
2 99 100
2 100 1

CELL_TYPES 100
3
3
3
3
3
3
3
3
3
3
3
3
3
3
3
3
3
3
3
3
3
3
3
3
3
3
3
3
3
3
3
3
3
3
3
3
3
3
3
3
3
3
3
3
3
3
3
3
3
3
3
3
3
3
3
3
3
3
3
3
3
3
3
3
3
3
3
3
3
3
3
3
3
3
3
3
3
3
3
3
3
3
3
3
3
3
3
3
3
3
3
3
3
3
3
3
3
3
3
3

POINT_DATA 101
SCALARS DISPL float 1
LOOKUP_TABLE default
0.0
0.0
0.0003515844581174384
0.0013842098752206826
0.0030646864964856725
0.005359832036345838
0.00823648006275103
0.011661491458167847
0.015601768791394096
0.020024273434315117
0.024896045257946586
0.030184224742400498
0.03585607733580124
0.04187901989769255
0.04822064906309868
0.05484877136417258
0.06173143494724591
0.06883696272415292
0.07613398679793251
0.08359148400436954
0.09117881241238036
0.09886574862798582
0.10662252574852522
0.11441987181585148
0.12222904861953336
0.13002189070358114
0.13777084443287071
0.14544900697830837
0.153030165082848
0.16048883347373544
0.16780029278978592
0.17494062689616344
0.1818867594629535
0.1886164896878459
0.19510852704744525
0.2013425249661082
0.20729911329576414
0.21295992950489973
0.2183076484797697
0.22332601084594425
0.2279998497234965
0.23231511583445766
0.2362589008866476
0.23981945916356837
0.2429862272557708
0.2457498418749094
0.24810215569762997
0.25003625119242945
0.2515464523887195
0.2526283345534738
0.253278731747059
0.25349574223610444
0.2532787317475673
0.2526283345544812
0.25154645239021206
0.25003625119438994
0.24810215570003746
0.24574984187774024
0.2429862272589979
0.2398194591671616
0.2362589008905746
0.23231511583868536
0.22799984972799053
0.22332601085067094
0.21830764848469497
0.21295992950999035
0.20729911330098624
0.20134252497142827
0.1951085270528307
0.18861648969326372
0.18188675946837152
0.1749406269015512
0.16780029279511435
0.16048883347897783
0.15303016508797962
0.14544900698330684
0.13777084443771614
0.13002189070825543
0.12222904862402349
0.11441987182014857
0.10662252575262261
0.09886574863187837
0.09117881241606524
0.08359148400784462
0.07613398680119611
0.06883696272720487
0.061731434950086574
0.05484877136680163
0.04822064906551686
0.041879019899904356
0.03585607733781064
0.030184224744208153
0.02489604525955304
0.020024273435721492
0.015601768792602059
0.011661491459178793
0.008236480063567017
0.00535983203697087
0.0030646864969249635
0.0013842098754800398
0.0003515844582028811

