# vtk DataFile Version 2.0
mesh vtk view
ASCII
DATASET UNSTRUCTURED_GRID
POINTS 101 double
0.0 0.0 0.0
1.0 0.4366499679593828 0.0
0.009999999999981052 7.641118038210113e-05 0.0
0.01999999999996226 0.00030423585325852257 0.0
0.02999999999994291 0.0006813607280026321 0.0
0.03999999999992165 0.0012056725546745483 0.0
0.04999999999989939 0.0018750581705993588 0.0
0.05999999999987805 0.0026874045651411457 0.0
0.06999999999986013 0.0036405989624111613 0.0
0.07999999999984476 0.004732528921649262 0.0
0.08999999999982944 0.005961082455017663 0.0
0.09999999999981413 0.007324148162545708 0.0
0.1099999999997988 0.008819615383965189 0.0
0.1199999999997825 0.010445374367174166 0.0
0.1299999999997603 0.012199316453066688 0.0
0.1399999999997321 0.01407933427647343 0.0
0.1499999999997028 0.016083321982946305 0.0
0.1599999999996737 0.018209175461128668 0.0
0.1699999999996445 0.02045479259045416 0.0
0.1799999999996153 0.02281807350391165 0.0
0.1899999999995861 0.025296920865610816 0.0
0.1999999999995569 0.027889240162893007 0.0
0.2099999999995277 0.03059294001273715 0.0
0.2199999999994985 0.03340593248218534 0.0
0.2299999999994693 0.036326133422538424 0.0
0.2399999999994402 0.039351462817075356 0.0
0.2499999999994109 0.04247984514200681 0.0
0.2599999999993817 0.045709209740431786 0.0
0.2699999999993525 0.04903749120904936 0.0
0.2799999999993234 0.05246262979734286 0.0
0.2899999999992942 0.0559825718189844 0.0
0.299999999999265 0.05959527007521213 0.0
0.3099999999992358 0.06329868428993604 0.0
0.3199999999992066 0.06709078155632076 0.0
0.3299999999991775 0.07096953679458198 0.0
0.3399999999991483 0.07493293322072107 0.0
0.349999999999119 0.07897896282599659 0.0
0.3599999999990898 0.08310562686685495 0.0
0.3699999999990606 0.08731093636506378 0.0
0.3799999999990315 0.09159291261783842 0.0
0.3899999999990023 0.09594958771766363 0.0
0.3999999999989731 0.10037900508159685 0.0
0.4099999999989439 0.10487921998983889 0.0
0.4199999999989147 0.1094483001332865 0.0
0.4299999999988856 0.11408432616980022 0.0
0.4399999999988564 0.11878539228901272 0.0
0.4499999999988272 0.12354960678543811 0.0
0.4599999999987979 0.12837509263956237 0.0
0.4699999999987687 0.13325998810676207 0.0
0.4799999999987396 0.13820244731383327 0.0
0.4899999999987104 0.14320064086286127 0.0
0.4999999999986921 0.14825275644216646 0.0
0.5099999999987076 0.15335699944416498 0.0
0.5199999999987339 0.1585115935898911 0.0
0.5299999999987604 0.16371478155997368 0.0
0.5399999999987867 0.16896482563180726 0.0
0.549999999998813 0.1742600083227552 0.0
0.5599999999988394 0.17959863303917198 0.0
0.5699999999988659 0.18497902473098074 0.0
0.5799999999988923 0.19039953055159878 0.0
0.5899999999989186 0.19585852052303312 0.0
0.5999999999989449 0.20135438820595833 0.0
0.6099999999989714 0.2068855513745685 0.0
0.6199999999989977 0.212450452695937 0.0
0.6299999999990241 0.21804756041376347 0.0
0.6399999999990504 0.2236753690363156 0.0
0.6499999999990768 0.22933240002832453 0.0
0.6599999999991032 0.2350172025066899 0.0
0.6699999999991295 0.2407283539397959 0.0
0.679999999999156 0.24646446085025908 0.0
0.6899999999991824 0.25222415952091093 0.0
0.6999999999992087 0.25800611670390944 0.0
0.7099999999992351 0.26380903033274605 0.0
0.7199999999992615 0.26963163023698705 0.0
0.7299999999992879 0.2754726788596159 0.0
0.7399999999993142 0.28133097197686296 0.0
0.7499999999993405 0.28720533942025717 0.0
0.759999999999367 0.29309464580077643 0.0
0.7699999999993933 0.29899779123508435 0.0
0.7799999999994197 0.3049137120735599 0.0
0.789999999999446 0.31084138163003233 0.0
0.7999999999994724 0.3167798109131099 0.0
0.8099999999994988 0.32272804935895905 0.0
0.8199999999995252 0.32868518556542703 0.0
0.8299999999995517 0.3346503480273604 0.0
0.839999999999578 0.34062270587302795 0.0
0.8499999999996044 0.34660146960154964 0.0
0.8599999999996307 0.35258589182119987 0.0
0.869999999999657 0.3585752679884881 0.0
0.8799999999996835 0.3645689371479781 0.0
0.8899999999997098 0.370566282672718 0.0
0.8999999999997362 0.3765667330051727 0.0
0.9099999999997626 0.38256976239860857 0.0
0.9199999999997889 0.3885748916588808 0.0
0.9299999999998153 0.39458168888655704 0.0
0.9399999999998417 0.400589770219292 0.0
0.9499999999998682 0.4065988005743894 0.0
0.9599999999998945 0.4126084943915322 0.0
0.9699999999999208 0.41861861637563713 0.0
0.9799999999999472 0.4246289822397889 0.0
0.9899999999999736 0.4306394594482293 0.0

CELLS 100 300
2 0 2
2 2 3
2 3 4
2 4 5
2 5 6
2 6 7
2 7 8
2 8 9
2 9 10
2 10 11
2 11 12
2 12 13
2 13 14
2 14 15
2 15 16
2 16 17
2 17 18
2 18 19
2 19 20
2 20 21
2 21 22
2 22 23
2 23 24
2 24 25
2 25 26
2 26 27
2 27 28
2 28 29
2 29 30
2 30 31
2 31 32
2 32 33
2 33 34
2 34 35
2 35 36
2 36 37
2 37 38
2 38 39
2 39 40
2 40 41
2 41 42
2 42 43
2 43 44
2 44 45
2 45 46
2 46 47
2 47 48
2 48 49
2 49 50
2 50 51
2 51 52
2 52 53
2 53 54
2 54 55
2 55 56
2 56 57
2 57 58
2 58 59
2 59 60
2 60 61
2 61 62
2 62 63
2 63 64
2 64 65
2 65 66
2 66 67
2 67 68
2 68 69
2 69 70
2 70 71
2 71 72
2 72 73
2 73 74
2 74 75
2 75 76
2 76 77
2 77 78
2 78 79
2 79 80
2 80 81
2 81 82
2 82 83
2 83 84
2 84 85
2 85 86
2 86 87
2 87 88
2 88 89
2 89 90
2 90 91
2 91 92
2 92 93
2 93 94
2 94 95
2 95 96
2 96 97
2 97 98
2 98 99
2 99 100
2 100 1

CELL_TYPES 100
3
3
3
3
3
3
3
3
3
3
3
3
3
3
3
3
3
3
3
3
3
3
3
3
3
3
3
3
3
3
3
3
3
3
3
3
3
3
3
3
3
3
3
3
3
3
3
3
3
3
3
3
3
3
3
3
3
3
3
3
3
3
3
3
3
3
3
3
3
3
3
3
3
3
3
3
3
3
3
3
3
3
3
3
3
3
3
3
3
3
3
3
3
3
3
3
3
3
3
3

POINT_DATA 101
SCALARS MODE1_0.0706_Hz float 1
LOOKUP_TABLE default
0.0
0.25471248130964
4.457318855622566e-05
0.00017747091440080488
0.00039746042466820217
0.00070330899022682
0.0010937839328496262
0.001567652662999002
0.0021236827280731777
0.0027606418709620697
0.003477298098760304
0.004272419761484997
0.005144775640646361
0.006093135047518265
0.0071162679309555695
0.008212944994609502
0.009381937823385346
0.010622019018991725
0.011931962344431597
0.013310542877281797
0.014756537171606313
0.016268723428354257
0.017845881674096675
0.01948679394794145
0.021190244496480753
0.022955019976627293
0.024779909666170646
0.026663705681918545
0.028605203205278797
0.030603200715116675
0.03265650022774091
0.03476390754387375
0.0369242325024627
0.03913628924118712
0.04139889646350616
0.0437108777120873
0.046071061648498016
0.04847828233899873
0.050931379546287216
0.053429199027072424
0.05597059283530379
0.058554419630931505
0.061179544994072695
0.06384484174441714
0.0665491902657168
0.06929147883525744
0.07207060395817225
0.0748854707064114
0.07773499306227788
0.08061809426640276
0.08353370717000243
0.08648077459126378
0.08945824967576292
0.09246509626076982
0.095500289243318
0.09856281495188758
0.10165167152160721
0.10476586927285034
0.10790443109307211
0.11106639282176597
0.11425080363843601
0.11745672645347571
0.12068323830183164
0.1239294307392966
0.12719441024136205
0.13047729860451746
0.133777233349856
0.13709336812890247
0.14042487313154764
0.1437709354959845
0.1471307597205314
0.15050356807728052
0.15388860102743523
0.15728511763824246
0.16069239600144264
0.16410973365317008
0.16753644799515005
0.1709718767171196
0.1744153782204659
0.17786633204290997
0.18132413928418556
0.18478822303264747
0.18825802879272616
0.1917330249131658
0.19521270301596025
0.198696578425933
0.202184190600904
0.20567510356236662
0.20916890632661808
0.2126652133363206
0.2161636648924189
0.21966392758635078
0.2231656947325217
0.22666868680101385
0.23017265185049166
0.23367736596125369
0.23718263366839387
0.24068828839506048
0.24419419288578836
0.2477002396398769
0.25120635134480046

