# vtk DataFile Version 2.0
mesh vtk view
ASCII
DATASET UNSTRUCTURED_GRID
POINTS 101 double
0.0 0.0 0.0
1.0 0.0 0.0
0.009999999999982145 -0.005822679316423335 -1.4015241676524088e-13
0.019999999999964664 -0.022924250555814915 -3.9861659255781834e-13
0.0299999999999467 -0.050755049775216395 -6.15052510052132e-13
0.03999999999992683 -0.08876553673382558 -7.940750804923251e-13
0.04999999999990592 -0.13640643374494363 -9.413015627019653e-13
0.05999999999988616 -0.19312891548450575 -1.0638799300875193e-12
0.06999999999987006 -0.25838484700634357 -1.1666131820969922e-12
0.07999999999985646 -0.33162706721712343 -1.2524276661247141e-12
0.08999999999984275 -0.41230971506750447 -1.327723613459e-12
0.0999999999998289 -0.4998885957208853 -1.3947631690243142e-12
0.1099999999998152 -0.5938215839675866 -1.4520337769653145e-12
0.11999999999980036 -0.6935690621608269 -1.5088332819016053e-12
0.12999999999977976 -0.7985943899611166 -1.548865147363327e-12
0.1399999999997529 -0.9083644031885122 -1.5454628839834232e-12
0.14999999999972494 -1.0223499390967048 -1.4970315103891352e-12
0.15999999999969702 -1.140026385400512 -1.4006683884977717e-12
0.16999999999966886 -1.2608742504086676 -1.2661449200436569e-12
0.1799999999996406 -1.3843797516362848 -1.084641522696969e-12
0.18999999999961234 -1.5100354202969914 -8.718980778486837e-13
0.19999999999958426 -1.6373407191034548 -6.495044312190894e-13
0.209999999999556 -1.7658026708367625 -4.202061598793045e-13
0.21999999999952757 -1.8949364951795036 -2.4429091771127576e-13
0.22999999999949894 -2.0242662513454137 -1.688352446751598e-13
0.23999999999947033 -2.153325484079724 -1.513058956051791e-13
0.24999999999944156 -2.2816578706480652 -1.3529639249803246e-13
0.2599999999994129 -2.408817866479654 -1.1956460610371313e-13
0.2699999999993841 -2.5343713471811884 -1.0198910147538622e-13
0.2799999999993556 -2.6578962446917207 -8.413675120844763e-14
0.289999999999327 -2.7789831754059113 -6.561134414858735e-14
0.29999999999929855 -2.8972360581535517 -4.6926819377956027e-14
0.30999999999927 -3.0122727199865715 -2.768506990906332e-14
0.31999999999924106 -3.1237254877914444 -6.953869994844927e-15
0.32999999999921203 -3.2312417638144413 1.2041575996155605e-14
0.3399999999991829 -3.3344845832597874 3.116313480334865e-14
0.3499999999991536 -3.4331331521962043 4.85961923296753e-14
0.3599999999991242 -3.5268833640855908 6.573699478114629e-14
0.36999999999909483 -3.615448293328406 8.123981218766167e-14
0.3799999999990655 -3.698558664304036 9.642421356153502e-14
0.389999999999036 -3.7759632944701904 1.0897988567560824e-13
0.39999999999900643 -3.8474295101738547 1.2094519748049554e-13
0.4099999999989769 -3.912743533916819 1.3076495522995887e-13
0.4199999999989475 -3.9717108419113916 1.4047272377958814e-13
0.4299999999989183 -4.024156490856548 1.4716012990303757e-13
0.43999999999888895 -4.069925412961012 1.527382917688419e-13
0.44999999999885953 -4.108882678337898 1.5874789097681927e-13
0.45999999999882996 -4.14091372399483 1.6116364828700841e-13
0.4699999999988004 -4.165924548744399 1.6519026806275112e-13
0.4799999999987711 -4.1838418734615646 1.6517087632697382e-13
0.48999999999874155 -4.194613266217695 1.6548517935143713e-13
0.49999999999872285 -4.198207231924468 1.6440441975024868e-13
0.5099999999987378 -4.19461326622527 1.6256687813185958e-13
0.5199999999987636 -4.183841873476572 1.5874269668215234e-13
0.5299999999987894 -4.165924548766636 1.538250455966928e-13
0.5399999999988153 -4.140913724024051 1.4713430449085234e-13
0.5499999999988409 -4.1088826783738055 1.3946864996224947e-13
0.5599999999988665 -4.06992541300327 1.323401838074486e-13
0.5699999999988922 -4.024156490904766 1.2209165341547508e-13
0.5799999999989178 -3.971710841965119 1.1463901242107194e-13
0.5899999999989434 -3.91274353397556 1.0547556394720336e-13
0.599999999998969 -3.8474295102370957 9.740989104696339e-14
0.6099999999989949 -3.775963294537392 9.045117565078127e-14
0.6199999999990207 -3.6985586643746657 8.481356339525928e-14
0.6299999999990465 -3.6154482934019265 7.754935718419367e-14
0.639999999999072 -3.5268833641614767 7.080820675638777e-14
0.6499999999990972 -3.4331331522739474 6.118709522971432e-14
0.6599999999991224 -3.3344845833388717 5.4348026646726275e-14
0.6699999999991476 -3.231241763894371 4.5684650422122856e-14
0.6799999999991726 -3.12372548787171 3.7953238761400956e-14
0.6899999999991976 -3.012272720066666 3.002063569202071e-14
0.6999999999992224 -2.8972360582329824 2.4531474371745382e-14
0.7099999999992472 -2.77898317548421 1.7074040928168145e-14
0.7199999999992718 -2.6578962447684567 9.83022092731569e-15
0.7299999999992967 -2.5343713472559593 2.8584454787188194e-15
0.7399999999993216 -2.4088178665520923 -4.2005539297594496e-15
0.749999999999347 -2.2816578707178334 -1.101725221494733e-14
0.7599999999993723 -2.1533254841465217 -1.7353074066126125e-14
0.7699999999993974 -2.0242662514089824 -2.3855041313188835e-14
0.7799999999994226 -1.8949364952396457 -3.034828537524084e-14
0.7899999999994477 -1.7658026708933068 -3.3646257477859e-14
0.7999999999994729 -1.637340719156212 -3.855691482168732e-14
0.8099999999994983 -1.5100354203458204 -4.251713367057885e-14
0.8199999999995241 -1.3843797516810876 -4.4955300615288186e-14
0.8299999999995501 -1.2608742504493742 -4.704222966927492e-14
0.8399999999995762 -1.140026385437123 -4.755109752710182e-14
0.8499999999996024 -1.0223499391292699 -4.738231749963805e-14
0.8599999999996284 -0.9083644032171054 -4.703311661661772e-14
0.8699999999996545 -0.798594389985853 -4.4965994942067486e-14
0.8799999999996807 -0.6935690621819031 -4.274292021235809e-14
0.8899999999997068 -0.5938215839852224 -3.9511578586786245e-14
0.8999999999997331 -0.4998885957352761 -3.571001875449097e-14
0.9099999999997592 -0.41230971507887565 -3.128006791564449e-14
0.9199999999997853 -0.3316270672257344 -2.7057655401637176e-14
0.9299999999998116 -0.25838484701249037 -2.2174208894594445e-14
0.9399999999998382 -0.19312891548850894 -1.737167429331988e-14
0.9499999999998648 -0.13640643374716402 -1.2833446724208172e-14
0.9599999999998915 -0.08876553673468636 -8.79501844663225e-15
0.9699999999999183 -0.05075504977519057 -5.271415344415695e-15
0.9799999999999452 -0.022924250555415575 -2.483287322721864e-15
0.9899999999999725 -0.005822679316197292 -6.534332679366102e-16

CELLS 100 300
2 0 2
2 2 3
2 3 4
2 4 5
2 5 6
2 6 7
2 7 8
2 8 9
2 9 10
2 10 11
2 11 12
2 12 13
2 13 14
2 14 15
2 15 16
2 16 17
2 17 18
2 18 19
2 19 20
2 20 21
2 21 22
2 22 23
2 23 24
2 24 25
2 25 26
2 26 27
2 27 28
2 28 29
2 29 30
2 30 31
2 31 32
2 32 33
2 33 34
2 34 35
2 35 36
2 36 37
2 37 38
2 38 39
2 39 40
2 40 41
2 41 42
2 42 43
2 43 44
2 44 45
2 45 46
2 46 47
2 47 48
2 48 49
2 49 50
2 50 51
2 51 52
2 52 53
2 53 54
2 54 55
2 55 56
2 56 57
2 57 58
2 58 59
2 59 60
2 60 61
2 61 62
2 62 63
2 63 64
2 64 65
2 65 66
2 66 67
2 67 68
2 68 69
2 69 70
2 70 71
2 71 72
2 72 73
2 73 74
2 74 75
2 75 76
2 76 77
2 77 78
2 78 79
2 79 80
2 80 81
2 81 82
2 82 83
2 83 84
2 84 85
2 85 86
2 86 87
2 87 88
2 88 89
2 89 90
2 90 91
2 91 92
2 92 93
2 93 94
2 94 95
2 95 96
2 96 97
2 97 98
2 98 99
2 99 100
2 100 1

CELL_TYPES 100
3
3
3
3
3
3
3
3
3
3
3
3
3
3
3
3
3
3
3
3
3
3
3
3
3
3
3
3
3
3
3
3
3
3
3
3
3
3
3
3
3
3
3
3
3
3
3
3
3
3
3
3
3
3
3
3
3
3
3
3
3
3
3
3
3
3
3
3
3
3
3
3
3
3
3
3
3
3
3
3
3
3
3
3
3
3
3
3
3
3
3
3
3
3
3
3
3
3
3
3

POINT_DATA 101
SCALARS DISPL float 1
LOOKUP_TABLE default
0.0
0.0
0.0003515844582169249
0.0013842098755055742
0.003064686496929367
0.005359832036923327
0.008236480063438904
0.01166149145894428
0.015601768792238868
0.020024273435209582
0.02489604525887372
0.03018422474334474
0.035856077336748345
0.04187901989863015
0.04822064906401611
0.054848771365061035
0.061731434948097706
0.06883696272496163
0.07613398679869399
0.08359148400508222
0.09117881241304567
0.09886574862860695
0.1066225257491074
0.11441987181640047
0.12222904862005267
0.13002189070407402
0.13777084443333945
0.14544900697875293
0.15303016508326855
0.1604888334741321
0.16780029279015873
0.17494062689651257
0.1818867594632791
0.18861648968814798
0.19510852704772327
0.20134252496636132
0.2072991132959913
0.21295992950510012
0.21830764847994183
0.22332601084608764
0.22799984972361073
0.23231511583454278
0.23625890088670382
0.23981945916359637
0.24298622725577154
0.2457498418748839
0.24810215569757935
0.25003625119235434
0.25154645238862033
0.2526283345533505
0.25327873174691123
0.2534957422359316
0.2532787317473686
0.25262833455425665
0.25154645238996304
0.25003625119411876
0.2481021556997475
0.24574984187743554
0.24298622725868307
0.23981945916684053
0.2362589008902507
0.2323151158383614
0.22799984972766849
0.22332601085035242
0.21830764848438114
0.21295992950968226
0.20729911330068557
0.20134252497113658
0.1951085270525496
0.18861648969299455
0.18188675946811536
0.17494062690130877
0.16780029279488656
0.16048883347876555
0.15303016508778336
0.1454490069831269
0.1377708444375522
0.1300218907081074
0.12222904862389107
0.11441987182003197
0.10662252575252165
0.09886574863179252
0.09117881241599404
0.0835914840077875
0.07613398680115192
0.06883696272717228
0.06173143495006405
0.05484877136678755
0.048220649065509734
0.04187901989990277
0.035856077337813236
0.030184224744213683
0.024896045259560334
0.020024273435729528
0.015601768792610023
0.011661491459186
0.008236480063572976
0.005359832036975303
0.0030646864969278076
0.0013842098754814614
0.000351584458203276

