# vtk DataFile Version 2.0
mesh vtk view
ASCII
DATASET UNSTRUCTURED_GRID
POINTS 101 double
0.0 0.0 0.0
1.0 0.0 0.0
0.00999999999998197 -0.004891050625795601 -1.1772803008280233e-13
0.01999999999996428 -0.01925637046688453 -3.348379377485674e-13
0.029999999999946098 -0.04263424181118177 -5.166441084437909e-13
0.039999999999926 -0.07456305085641347 -6.670230676135531e-13
0.04999999999990487 -0.11458140434575263 -7.906933126696508e-13
0.05999999999988486 -0.16222828900698483 -8.936591412735161e-13
0.06999999999986847 -0.2170432714853286 -9.799550729614733e-13
0.07999999999985459 -0.27856673646238367 -1.0520392395447598e-12
0.08999999999984062 -0.34634016065670375 -1.1152878353055599e-12
0.09999999999982653 -0.4199064204055436 -1.1716010619804237e-12
0.10999999999981258 -0.4988101305327726 -1.2197083726508641e-12
0.1199999999997975 -0.5825980122150947 -1.2674199567973484e-12
0.12999999999977666 -0.670819287567338 -1.3010467237851945e-12
0.13999999999974957 -0.7630260986783501 -1.2981888225460755e-12
0.1499999999997214 -0.8587739488412319 -1.2575064687268736e-12
0.1599999999996933 -0.9576221637364299 -1.1765614463381282e-12
0.16999999999966495 -1.0591343703432807 -1.0635617328366717e-12
0.17999999999963653 -1.1628789913744793 -9.11098879065454e-13
0.18999999999960815 -1.2684297530494728 -7.323943853928942e-13
0.1999999999995799 -1.375366204046902 -5.455837222240351e-13
0.20999999999955146 -1.4832742435028803 -3.5297317429861574e-13
0.21999999999952294 -1.591746655950783 -2.0520437087747163e-13
0.2299999999994942 -1.7003836511301476 -1.4182160552713423e-13
0.2399999999994655 -1.808793406626968 -1.2709695230835043e-13
0.24999999999943667 -1.9165926113443748 -1.1364896969834725e-13
0.2599999999994079 -2.023407007842909 -1.0043426912711902e-13
0.26999999999937907 -2.1288719316321982 -8.567084523932441e-14
0.27999999999935044 -2.2326328455410454 -7.0674871015096e-14
0.28999999999932174 -2.334345867340965 -5.511352908481337e-14
0.29999999999929317 -2.433678288848983 -3.9418528277483064e-14
0.30999999999926453 -2.53030908478872 -2.3255458723613185e-14
0.3199999999992355 -2.623929409744813 -5.841250795669738e-15
0.32999999999920654 -2.7142430816041303 1.0114923836770707e-14
0.3399999999991774 -2.800967049938221 2.6177033234812867e-14
0.34999999999914805 -2.8838318478448115 4.0820801556927245e-14
0.3599999999991187 -2.962582025831896 5.521907561616288e-14
0.36999999999908934 -3.036976566395861 6.82414422376358e-14
0.37999999999906003 -3.10678927801539 8.099633939168941e-14
0.3899999999990306 -3.1718091673549598 9.154310396751091e-14
0.3999999999990011 -3.231840788546038 1.0159396588361624e-13
0.40999999999897163 -3.286704568490128 1.0984256239316546e-13
0.4199999999989422 -3.3362371072055685 1.1799708797485404e-13
0.42999999999891303 -3.3802914523195 1.2361450911855154e-13
0.43999999999888373 -3.4187373468872497 1.283001650858272e-13
0.44999999999885437 -3.451461449803834 1.333482284205282e-13
0.45999999999882485 -3.4783675281556565 1.3537746456108705e-13
0.46999999999879527 -3.499376620945295 1.3875982517271094e-13
0.479999999998766 -3.5144271737077144 1.38743536114658e-13
0.48999999999873656 -3.523475143622864 1.3900755065520717e-13
0.4999999999987179 -3.5264940748165525 1.3809971259020888e-13
0.5099999999987329 -3.5234751436292266 1.3655617763076205e-13
0.5199999999987589 -3.5144271737203203 1.3334386521300796e-13
0.5299999999987848 -3.499376620963974 1.2921303830122196e-13
0.5399999999988107 -3.4783675281802022 1.2359281577231597e-13
0.5499999999988364 -3.4514614498339964 1.1715366596828955e-13
0.5599999999988622 -3.4187373469227467 1.1116575439825682e-13
0.569999999998888 -3.3802914523600034 1.0255698886899904e-13
0.5799999999989137 -3.3362371072506996 9.629677043370043e-14
0.5899999999989395 -3.2867045685394705 8.859947371565081e-14
0.5999999999989652 -3.2318407885991602 8.182430847944924e-14
0.6099999999989911 -3.1718091674114093 7.597898754665627e-14
0.619999999999017 -3.1067892780747193 7.124339325201779e-14
0.629999999999043 -3.0369765664576183 6.514146003472268e-14
0.6399999999990685 -2.9625820258956406 5.947889367536573e-14
0.649999999999094 -2.8838318479101157 5.1397159992960017e-14
0.6599999999991194 -2.800967050004652 4.5652342383250073e-14
0.6699999999991447 -2.7142430816712717 3.83751063545832e-14
0.6799999999991699 -2.623929409812236 3.18807205595768e-14
0.6899999999991951 -2.5303090848559995 2.521733398129739e-14
0.6999999999992201 -2.433678288915705 2.060643847226612e-14
0.7099999999992452 -2.3343458674067366 1.434219437966124e-14
0.7199999999992701 -2.2326328456055036 8.25738557894518e-15
0.7299999999992952 -2.1288719316950058 2.401094202123808e-15
0.7399999999993204 -2.0234070079037574 -3.5284653009979374e-15
0.749999999999346 -1.91659261140298 -9.254491860555756e-15
0.7599999999993714 -1.8087934066830782 -1.4576582215545946e-14
0.7699999999993967 -1.7003836511835453 -2.0038234703078623e-14
0.7799999999994222 -1.5917466560013023 -2.5492559715202306e-14
0.7899999999994474 -1.4832742435503776 -2.8262856281401558e-14
0.7999999999994728 -1.375366204091218 -3.238780845021735e-14
0.8099999999994985 -1.2684297530904889 -3.5714392283286235e-14
0.8199999999995242 -1.1628789914121136 -3.776245251684208e-14
0.8299999999995503 -1.0591343703774743 -3.951547292219093e-14
0.8399999999995764 -0.9576221637671832 -3.994292192276552e-14
0.8499999999996027 -0.8587739488685867 -3.980114669969596e-14
0.8599999999996287 -0.7630260987023685 -3.9507817957958884e-14
0.8699999999996548 -0.6708192875881164 -3.7771435751336685e-14
0.8799999999996811 -0.5825980122327985 -3.5904052978380793e-14
0.8899999999997072 -0.4988101305475868 -3.3189726012900445e-14
0.8999999999997336 -0.4199064204176319 -2.9996415753772416e-14
0.9099999999997598 -0.34634016066625556 -2.627525704914137e-14
0.9199999999997859 -0.2785667364696168 -2.2728430537375226e-14
0.9299999999998123 -0.21704327149049188 -1.8626335471459333e-14
0.9399999999998387 -0.1622282890103475 -1.45922064063887e-14
0.9499999999998654 -0.11458140434761777 -1.0780095248334864e-14
0.959999999999892 -0.07456305085713653 -7.38781549517109e-15
0.9699999999999186 -0.04263424181116007 -4.427988889309183e-15
0.9799999999999456 -0.019256370466549082 -2.0859613510863654e-15
0.9899999999999726 -0.004891050625605725 -5.488839450667526e-16

CELLS 100 300
2 0 2
2 2 3
2 3 4
2 4 5
2 5 6
2 6 7
2 7 8
2 8 9
2 9 10
2 10 11
2 11 12
2 12 13
2 13 14
2 14 15
2 15 16
2 16 17
2 17 18
2 18 19
2 19 20
2 20 21
2 21 22
2 22 23
2 23 24
2 24 25
2 25 26
2 26 27
2 27 28
2 28 29
2 29 30
2 30 31
2 31 32
2 32 33
2 33 34
2 34 35
2 35 36
2 36 37
2 37 38
2 38 39
2 39 40
2 40 41
2 41 42
2 42 43
2 43 44
2 44 45
2 45 46
2 46 47
2 47 48
2 48 49
2 49 50
2 50 51
2 51 52
2 52 53
2 53 54
2 54 55
2 55 56
2 56 57
2 57 58
2 58 59
2 59 60
2 60 61
2 61 62
2 62 63
2 63 64
2 64 65
2 65 66
2 66 67
2 67 68
2 68 69
2 69 70
2 70 71
2 71 72
2 72 73
2 73 74
2 74 75
2 75 76
2 76 77
2 77 78
2 78 79
2 79 80
2 80 81
2 81 82
2 82 83
2 83 84
2 84 85
2 85 86
2 86 87
2 87 88
2 88 89
2 89 90
2 90 91
2 91 92
2 92 93
2 93 94
2 94 95
2 95 96
2 96 97
2 97 98
2 98 99
2 99 100
2 100 1

CELL_TYPES 100
3
3
3
3
3
3
3
3
3
3
3
3
3
3
3
3
3
3
3
3
3
3
3
3
3
3
3
3
3
3
3
3
3
3
3
3
3
3
3
3
3
3
3
3
3
3
3
3
3
3
3
3
3
3
3
3
3
3
3
3
3
3
3
3
3
3
3
3
3
3
3
3
3
3
3
3
3
3
3
3
3
3
3
3
3
3
3
3
3
3
3
3
3
3
3
3
3
3
3
3

POINT_DATA 101
SCALARS DISPL float 1
LOOKUP_TABLE default
0.0
0.0
0.0003515844582169249
0.0013842098755055742
0.003064686496929367
0.005359832036923327
0.008236480063438904
0.01166149145894428
0.015601768792238868
0.020024273435209582
0.02489604525887372
0.03018422474334474
0.035856077336748345
0.04187901989863015
0.04822064906401611
0.054848771365061035
0.061731434948097706
0.06883696272496163
0.07613398679869399
0.08359148400508222
0.09117881241304567
0.09886574862860695
0.1066225257491074
0.11441987181640047
0.12222904862005267
0.13002189070407402
0.13777084443333945
0.14544900697875293
0.15303016508326855
0.1604888334741321
0.16780029279015873
0.17494062689651257
0.1818867594632791
0.18861648968814798
0.19510852704772327
0.20134252496636132
0.2072991132959913
0.21295992950510012
0.21830764847994183
0.22332601084608764
0.22799984972361073
0.23231511583454278
0.23625890088670382
0.23981945916359637
0.24298622725577154
0.2457498418748839
0.24810215569757935
0.25003625119235434
0.25154645238862033
0.2526283345533505
0.25327873174691123
0.2534957422359316
0.2532787317473686
0.25262833455425665
0.25154645238996304
0.25003625119411876
0.2481021556997475
0.24574984187743554
0.24298622725868307
0.23981945916684053
0.2362589008902507
0.2323151158383614
0.22799984972766849
0.22332601085035242
0.21830764848438114
0.21295992950968226
0.20729911330068557
0.20134252497113658
0.1951085270525496
0.18861648969299455
0.18188675946811536
0.17494062690130877
0.16780029279488656
0.16048883347876555
0.15303016508778336
0.1454490069831269
0.1377708444375522
0.1300218907081074
0.12222904862389107
0.11441987182003197
0.10662252575252165
0.09886574863179252
0.09117881241599404
0.0835914840077875
0.07613398680115192
0.06883696272717228
0.06173143495006405
0.05484877136678755
0.048220649065509734
0.04187901989990277
0.035856077337813236
0.030184224744213683
0.024896045259560334
0.020024273435729528
0.015601768792610023
0.011661491459186
0.008236480063572976
0.005359832036975303
0.0030646864969278076
0.0013842098754814614
0.000351584458203276

