# vtk DataFile Version 2.0
mesh vtk view
ASCII
DATASET UNSTRUCTURED_GRID
POINTS 101 double
0.0 0.0 0.0
1.0 0.0 0.0
0.009999999999981047 -6.506394592443991e-14 0.003959421934039553
0.01999999999996225 -1.8289688234922597e-13 0.01558849037471456
0.029999999999942892 -2.767396716074163e-13 0.03451343384208126
0.039999999999921626 -3.48404419691352e-13 0.06036056497237697
0.04999999999989936 -3.9974461997561935e-13 0.09275637493862922
0.05999999999987801 -4.3258423504633167e-13 0.13132766252045688
0.06999999999986009 -4.488262438997316e-13 0.17570169595444807
0.07999999999984471 -4.5029298720348973e-13 0.22550640569711897
0.08999999999982938 -4.3905686578950616e-13 0.28037060623490023
0.09999999999981407 -4.170251833945635e-13 0.33992424507888724
0.10999999999979873 -3.863070941472934e-13 0.40379867708648387
0.11999999999978243 -3.488628350568848e-13 0.47162696225785844
0.12999999999976022 -3.069304897276435e-13 0.5430441851621396
0.139999999999732 -2.6334539503533356e-13 0.6176877941569452
0.14999999999970268 -2.2000084695475601e-13 0.6951979585747737
0.1599999999996736 -1.7837919274258056e-13 0.7752179420616875
0.16999999999964438 -1.4045369629498424e-13 0.8573944902676007
0.1799999999996152 -1.0711701692369866e-13 0.9413782311027616
0.189999999999586 -7.775559667056138e-14 1.0268240857924045
0.19999999999955678 -5.2419578145418164e-14 1.1133916889811235
0.2099999999995276 -3.0803663438095136e-14 1.2007458161600364
0.21999999999949837 -1.4292136229289887e-14 1.2885568167132981
0.22999999999946916 -4.346906028892927e-15 1.3765010509062752
0.23999999999944005 -9.531303842247127e-16 1.4642613291657278
0.24999999999941075 -6.0994887761431e-16 1.5515273520322972
0.2599999999993816 -9.506713458559325e-16 1.6379961491978763
0.26999999999935237 -5.252188159296417e-16 1.7233725160750193
0.2799999999993233 -5.348891866258435e-16 1.807369446382282
0.28999999999929404 -3.8129139257324014e-16 1.8897085592680352
0.2999999999992649 -4.462623200236469e-16 1.9701205195365359
0.3099999999992356 -2.7591641734195996e-16 2.0483454495830977
0.3199999999992064 -1.3533278990851567e-16 2.1241333316905244
0.32999999999917734 6.641094549503971e-17 2.1972443993862867
0.33999999999914815 3.508155775486666e-16 2.2674495166092616
0.34999999999911885 4.81597739922804e-16 2.3345305434861836
0.3599999999990897 5.394835193911709e-16 2.3982806875711398
0.3699999999990604 6.37537305402979e-16 2.458504839456452
0.37999999999903133 8.33687752002918e-16 2.5150198917200908
0.38999999999900214 1.2399437406186773e-15 2.5676550402332987
0.39999999999897295 9.475203530806178e-16 2.6162520669120206
0.4099999999989437 1.3959122774722867e-15 2.6606656030574736
0.4199999999989145 9.217840367160796e-16 2.70076337249402
0.42999999999888544 1.6514016693425725e-15 2.7364264137769614
0.4399999999988563 1.875279763906445e-15 2.7675492808082303
0.44999999999882706 1.8420692956734215e-15 2.794040221264743
0.4599999999987978 1.5812067935872427e-15 2.8158213323116885
0.46999999999876857 2.3019724495367365e-15 2.832828693141632
0.47999999999873944 2.042938842164763e-15 2.8450124739495526
0.4899999999987103 1.941534934220494e-15 2.8523370210239825
0.49999999999869194 1.9445244181593164e-15 2.8547809177048653
0.5099999999987075 2.3773802345228594e-15 2.8523370210297068
0.5199999999987338 2.658347687324979e-15 2.8450124739608977
0.5299999999987602 1.9223709383792055e-15 2.832828693158441
0.5399999999987866 2.2537383300914784e-15 2.815821332333767
0.5499999999988129 1.8620833185741007e-15 2.794040221291855
0.5599999999988393 2.6745340702720037e-15 2.76754928084011
0.5699999999988657 2.627635940164959e-15 2.736426413813304
0.5799999999988922 2.3014369323443072e-15 2.7007633725344853
0.5899999999989185 2.545192974432105e-15 2.6606656031016978
0.5999999999989448 2.252479874315718e-15 2.616252066959632
0.6099999999989713 2.2249482817055487e-15 2.567655040283909
0.6199999999989976 2.378513998996701e-15 2.515019891773321
0.629999999999024 2.255573128410504e-15 2.4585048395119187
0.6399999999990503 2.2114030252894396e-15 2.398280687628469
0.6499999999990766 2.500486670341848e-15 2.334530543544993
0.6599999999991031 2.469160023006526e-15 2.2674495166691746
0.6699999999991294 2.1988979244585202e-15 2.1972443994469355
0.6799999999991558 2.436668504715358e-15 2.1241333317515383
0.6899999999991823 2.4454485054300663e-15 2.048345449644114
0.6999999999992086 2.258629859991127e-15 1.9701205195972111
0.7099999999992351 2.3548277015434877e-15 1.889708559328042
0.7199999999992615 2.426110304488556e-15 1.80736944644132
0.7299999999992879 2.2967893794860805e-15 1.7233725161328097
0.7399999999993142 2.2661451187902826e-15 1.6379961492541673
0.7499999999993405 2.27513595992872e-15 1.5515273520868647
0.759999999999367 2.027877253303339e-15 1.4642613292183682
0.7699999999993933 1.5126438446782966e-15 1.3765010509568416
0.7799999999994197 1.7220035430026826e-15 1.2885568167616905
0.789999999999446 1.805558526710812e-15 1.20074581620618
0.7999999999994724 1.630301325576519e-15 1.1133916890249602
0.8099999999994988 1.5017583196758934e-15 1.0268240858339022
0.8199999999995252 1.6090672961909763e-15 0.9413782311418969
0.8299999999995517 1.3447879371829462e-15 0.8573944903043542
0.839999999999578 1.290130148401639e-15 0.7752179420960574
0.8499999999996044 1.1554050469013611e-15 0.6951979586067644
0.8599999999996307 1.0175037707592652e-15 0.6176877941865526
0.869999999999657 9.768673112715956e-16 0.5430441851893723
0.8799999999996835 8.713230509328979e-16 0.47162696228276707
0.8899999999997098 6.932745930037465e-16 0.403798677109113
0.8999999999997362 5.517790376525535e-16 0.3399242450992444
0.9099999999997626 5.554037176326125e-16 0.2803706062529916
0.9199999999997889 3.94839245737685e-16 0.22550640571295708
0.9299999999998153 3.3713709023674753e-16 0.17570169596805174
0.9399999999998417 2.456888295925755e-16 0.1313276625318418
0.9499999999998682 1.8058783128060523e-16 0.09275637494781859
0.9599999999998945 1.0947657156067678e-16 0.060360564979415866
0.9699999999999208 6.262635279141442e-17 0.03451343384702841
0.9799999999999472 3.27239119836998e-17 0.01558849037763535
0.9899999999999736 7.82138443504004e-18 0.0039594219350017786

CELLS 100 300
2 0 2
2 2 3
2 3 4
2 4 5
2 5 6
2 6 7
2 7 8
2 8 9
2 9 10
2 10 11
2 11 12
2 12 13
2 13 14
2 14 15
2 15 16
2 16 17
2 17 18
2 18 19
2 19 20
2 20 21
2 21 22
2 22 23
2 23 24
2 24 25
2 25 26
2 26 27
2 27 28
2 28 29
2 29 30
2 30 31
2 31 32
2 32 33
2 33 34
2 34 35
2 35 36
2 36 37
2 37 38
2 38 39
2 39 40
2 40 41
2 41 42
2 42 43
2 43 44
2 44 45
2 45 46
2 46 47
2 47 48
2 48 49
2 49 50
2 50 51
2 51 52
2 52 53
2 53 54
2 54 55
2 55 56
2 56 57
2 57 58
2 58 59
2 59 60
2 60 61
2 61 62
2 62 63
2 63 64
2 64 65
2 65 66
2 66 67
2 67 68
2 68 69
2 69 70
2 70 71
2 71 72
2 72 73
2 73 74
2 74 75
2 75 76
2 76 77
2 77 78
2 78 79
2 79 80
2 80 81
2 81 82
2 82 83
2 83 84
2 84 85
2 85 86
2 86 87
2 87 88
2 88 89
2 89 90
2 90 91
2 91 92
2 92 93
2 93 94
2 94 95
2 95 96
2 96 97
2 97 98
2 98 99
2 99 100
2 100 1

CELL_TYPES 100
3
3
3
3
3
3
3
3
3
3
3
3
3
3
3
3
3
3
3
3
3
3
3
3
3
3
3
3
3
3
3
3
3
3
3
3
3
3
3
3
3
3
3
3
3
3
3
3
3
3
3
3
3
3
3
3
3
3
3
3
3
3
3
3
3
3
3
3
3
3
3
3
3
3
3
3
3
3
3
3
3
3
3
3
3
3
3
3
3
3
3
3
3
3
3
3
3
3
3
3

POINT_DATA 101
SCALARS DISPL float 1
LOOKUP_TABLE default
0.0
0.0
0.0003515844581174384
0.0013842098752206826
0.0030646864964856725
0.005359832036345838
0.00823648006275103
0.011661491458167847
0.015601768791394096
0.020024273434315117
0.024896045257946586
0.030184224742400498
0.03585607733580124
0.04187901989769255
0.04822064906309868
0.05484877136417258
0.06173143494724591
0.06883696272415292
0.07613398679793251
0.08359148400436954
0.09117881241238036
0.09886574862798582
0.10662252574852522
0.11441987181585148
0.12222904861953336
0.13002189070358114
0.13777084443287071
0.14544900697830837
0.153030165082848
0.16048883347373544
0.16780029278978592
0.17494062689616344
0.1818867594629535
0.1886164896878459
0.19510852704744525
0.2013425249661082
0.20729911329576414
0.21295992950489973
0.2183076484797697
0.22332601084594425
0.2279998497234965
0.23231511583445766
0.2362589008866476
0.23981945916356837
0.2429862272557708
0.2457498418749094
0.24810215569762997
0.25003625119242945
0.2515464523887195
0.2526283345534738
0.253278731747059
0.25349574223610444
0.2532787317475673
0.2526283345544812
0.25154645239021206
0.25003625119438994
0.24810215570003746
0.24574984187774024
0.2429862272589979
0.2398194591671616
0.2362589008905746
0.23231511583868536
0.22799984972799053
0.22332601085067094
0.21830764848469497
0.21295992950999035
0.20729911330098624
0.20134252497142827
0.1951085270528307
0.18861648969326372
0.18188675946837152
0.1749406269015512
0.16780029279511435
0.16048883347897783
0.15303016508797962
0.14544900698330684
0.13777084443771614
0.13002189070825543
0.12222904862402349
0.11441987182014857
0.10662252575262261
0.09886574863187837
0.09117881241606524
0.08359148400784462
0.07613398680119611
0.06883696272720487
0.061731434950086574
0.05484877136680163
0.04822064906551686
0.041879019899904356
0.03585607733781064
0.030184224744208153
0.02489604525955304
0.020024273435721492
0.015601768792602059
0.011661491459178793
0.008236480063567017
0.00535983203697087
0.0030646864969249635
0.0013842098754800398
0.0003515844582028811

