# vtk DataFile Version 2.0
mesh vtk view
ASCII
DATASET UNSTRUCTURED_GRID
POINTS 101 double
0.0 0.0 0.0
1.0 0.0 0.0
0.009999999999981008 0.00023290717265693275 5.60609667060962e-15
0.019999999999962163 0.000916970022232594 1.5944663702312687e-14
0.029999999999942756 0.00203020199100865 2.460210040208521e-14
0.03999999999992144 0.003550621469353013 3.176300321969291e-14
0.049999999999899125 0.005456257349797729 3.7652062508078504e-14
0.05999999999987772 0.007725156619380208 4.2555197203500647e-14
0.06999999999985973 0.010335393880253714 4.6664527283879554e-14
0.07999999999984429 0.013265082688684898 5.009710664498842e-14
0.08999999999982891 0.016492388602700133 5.310894453835985e-14
0.09999999999981353 0.019995543828835356 5.57905267609724e-14
0.10999999999979815 0.023752863358703392 5.808135107861242e-14
0.1199999999997818 0.027742762486433 6.035333127606403e-14
0.12999999999975953 0.03194377559844457 6.19546058945329e-14
0.13999999999973126 0.03633457612754038 6.181851535933675e-14
0.1499999999997019 0.04089399756386807 5.988126041556524e-14
0.15999999999967277 0.045601055416020345 5.6026735539910713e-14
0.16999999999964352 0.05043497001634656 5.064579680174613e-14
0.1799999999996143 0.05537519006545124 4.338566090787864e-14
0.18999999999958506 0.06040141681187949 3.487592311394725e-14
0.1999999999995558 0.065493628764138 2.5980177248763503e-14
0.20999999999952657 0.07063210683347029 1.680824639517213e-14
0.21999999999949735 0.07579745980717993 9.771636708451003e-15
0.2299999999994681 0.08097065005381632 6.753409787006373e-15
0.239999999999439 0.0861330193631887 6.052235824207147e-15
0.24999999999940967 0.09126631482592236 5.411855699921282e-15
0.2599999999993805 0.09635271465918588 4.782584244148511e-15
0.2699999999993512 0.10137485388724725 4.079564059015437e-15
0.2799999999993221 0.10631584978766853 3.365470048337895e-15
0.2899999999992929 0.11115932701623614 2.6244537659434867e-15
0.2999999999992637 0.11588944232614173 1.877072775118236e-15
0.3099999999992344 0.12049090879946252 1.1074027963625295e-15
0.3199999999992052 0.12494901951165742 2.7815479979379626e-16
0.3299999999991761 0.12924967055257727 -4.816630398462228e-16
0.33999999999914693 0.13337938333039112 -1.2465253921339425e-15
0.34999999999911763 0.13732532608784778 -1.943847693187006e-15
0.35999999999908844 0.14107533456342322 -2.629479791245844e-15
0.3699999999990592 0.14461793173313583 -3.2495924875064576e-15
0.37999999999903017 0.14794234657216102 -3.85696854246139e-15
0.389999999999001 0.1510385317788072 -4.359195427024318e-15
0.3999999999989718 0.15389718040695374 -4.837807899219807e-15
0.40999999999894254 0.1565097413566723 -5.23059820919834e-15
0.41999999999891335 0.1588684336764552 -5.6189089511835105e-15
0.4299999999988843 0.16096625963426145 -5.886405196121486e-15
0.43999999999885514 0.16279701651844 -6.109531670753658e-15
0.44999999999882595 0.16435530713351545 -6.349915639072753e-15
0.45999999999879665 0.1656365489597927 -6.446545931480318e-15
0.4699999999987674 0.16663698194977547 -6.607610722510027e-15
0.4799999999987383 0.16735367493846212 -6.606835053078934e-15
0.4899999999987092 0.16778453064870735 -6.619407174057466e-15
0.4999999999986909 0.16792828927697823 -6.576176790009929e-15
0.5099999999987064 0.16778453064901033 -6.5026751252743645e-15
0.5199999999987327 0.16735367493906242 -6.3497078672860755e-15
0.5299999999987592 0.16663698195066495 -6.153001823867695e-15
0.5399999999987856 0.16563654896096155 -5.885372179634077e-15
0.5499999999988119 0.16435530713495175 -5.5787459984899626e-15
0.5599999999988383 0.16279701652013034 -5.293607352297929e-15
0.5699999999988649 0.16096625963619018 -4.8836661366189885e-15
0.5799999999988913 0.1588684336786043 -4.585560496842865e-15
0.5899999999989176 0.15650974135902196 -4.219022557888122e-15
0.5999999999989439 0.1538971804094834 -3.896395641878524e-15
0.6099999999989705 0.15103853178149526 -3.618047026031241e-15
0.6199999999989968 0.14794234657498623 -3.3925425358103613e-15
0.6299999999990232 0.14461793173607665 -3.101974287367738e-15
0.6399999999990496 0.14107533456645868 -2.8323282702555025e-15
0.649999999999076 0.1373253260909575 -2.4474838091885652e-15
0.6599999999991024 0.13337938333355448 -2.173921065869045e-15
0.6699999999991287 0.1292496705557745 -1.8273860168849092e-15
0.6799999999991553 0.12494901951486803 -1.518129550456034e-15
0.6899999999991818 0.1204909088026663 -1.200825427680825e-15
0.6999999999992081 0.11588944232931897 -9.812589748698124e-16
0.7099999999992347 0.11115932701936809 -6.829616371267238e-16
0.719999999999261 0.10631584979073797 -3.9320883709262646e-16
0.7299999999992876 0.10137485389023808 -1.1433781914875245e-16
0.7399999999993139 0.09635271466208341 1.680221571903775e-16
0.7499999999993403 0.09126631482871309 4.406900885978919e-16
0.7599999999993667 0.08613301936586062 6.941229626450431e-16
0.7699999999993932 0.08097065005635908 9.542016525275507e-16
0.7799999999994196 0.07579745980958562 1.2139314150096301e-15
0.7899999999994459 0.07063210683573207 1.345850299114356e-15
0.7999999999994724 0.06549362876624829 1.5422765928674884e-15
0.8099999999994988 0.06040141681383264 1.7006853468231491e-15
0.8199999999995252 0.05537519006724335 1.7982120246115224e-15
0.8299999999995518 0.05043497001797482 1.8816891867709913e-15
0.8399999999995781 0.04560105541748479 1.9020439010840674e-15
0.8499999999996045 0.04089399756517068 1.8952926999855165e-15
0.8599999999996308 0.03633457612868411 1.8813246646647033e-15
0.8699999999996572 0.031943775599434024 1.7986397976826943e-15
0.8799999999996836 0.027742762487276043 1.7097168084943186e-15
0.8899999999997099 0.02375286335940883 1.5804631434714454e-15
0.8999999999997363 0.019995543829410985 1.4284007501796348e-15
0.9099999999997627 0.01649238860315498 1.251202716625776e-15
0.919999999999789 0.013265082689029336 1.082306216065484e-15
0.9299999999998154 0.010335393880499585 8.869683557837753e-16
0.9399999999998419 0.007725156619540336 6.948669717327932e-16
0.9499999999998683 0.005456257349886545 5.133378689683254e-16
0.9599999999998946 0.003550621469387444 3.5180073786528903e-16
0.9699999999999209 0.002030201991007617 2.108566137766272e-16
0.9799999999999474 0.0009169700222166204 9.933149290887427e-17
0.9899999999999736 0.00023290717264789102 2.6137330717464335e-17

CELLS 100 300
2 0 2
2 2 3
2 3 4
2 4 5
2 5 6
2 6 7
2 7 8
2 8 9
2 9 10
2 10 11
2 11 12
2 12 13
2 13 14
2 14 15
2 15 16
2 16 17
2 17 18
2 18 19
2 19 20
2 20 21
2 21 22
2 22 23
2 23 24
2 24 25
2 25 26
2 26 27
2 27 28
2 28 29
2 29 30
2 30 31
2 31 32
2 32 33
2 33 34
2 34 35
2 35 36
2 36 37
2 37 38
2 38 39
2 39 40
2 40 41
2 41 42
2 42 43
2 43 44
2 44 45
2 45 46
2 46 47
2 47 48
2 48 49
2 49 50
2 50 51
2 51 52
2 52 53
2 53 54
2 54 55
2 55 56
2 56 57
2 57 58
2 58 59
2 59 60
2 60 61
2 61 62
2 62 63
2 63 64
2 64 65
2 65 66
2 66 67
2 67 68
2 68 69
2 69 70
2 70 71
2 71 72
2 72 73
2 73 74
2 74 75
2 75 76
2 76 77
2 77 78
2 78 79
2 79 80
2 80 81
2 81 82
2 82 83
2 83 84
2 84 85
2 85 86
2 86 87
2 87 88
2 88 89
2 89 90
2 90 91
2 91 92
2 92 93
2 93 94
2 94 95
2 95 96
2 96 97
2 97 98
2 98 99
2 99 100
2 100 1

CELL_TYPES 100
3
3
3
3
3
3
3
3
3
3
3
3
3
3
3
3
3
3
3
3
3
3
3
3
3
3
3
3
3
3
3
3
3
3
3
3
3
3
3
3
3
3
3
3
3
3
3
3
3
3
3
3
3
3
3
3
3
3
3
3
3
3
3
3
3
3
3
3
3
3
3
3
3
3
3
3
3
3
3
3
3
3
3
3
3
3
3
3
3
3
3
3
3
3
3
3
3
3
3
3

POINT_DATA 101
SCALARS DISPL float 1
LOOKUP_TABLE default
0.0
0.0
0.0003515844582169249
0.0013842098755055742
0.003064686496929367
0.005359832036923327
0.008236480063438904
0.01166149145894428
0.015601768792238868
0.020024273435209582
0.02489604525887372
0.03018422474334474
0.035856077336748345
0.04187901989863015
0.04822064906401611
0.054848771365061035
0.061731434948097706
0.06883696272496163
0.07613398679869399
0.08359148400508222
0.09117881241304567
0.09886574862860695
0.1066225257491074
0.11441987181640047
0.12222904862005267
0.13002189070407402
0.13777084443333945
0.14544900697875293
0.15303016508326855
0.1604888334741321
0.16780029279015873
0.17494062689651257
0.1818867594632791
0.18861648968814798
0.19510852704772327
0.20134252496636132
0.2072991132959913
0.21295992950510012
0.21830764847994183
0.22332601084608764
0.22799984972361073
0.23231511583454278
0.23625890088670382
0.23981945916359637
0.24298622725577154
0.2457498418748839
0.24810215569757935
0.25003625119235434
0.25154645238862033
0.2526283345533505
0.25327873174691123
0.2534957422359316
0.2532787317473686
0.25262833455425665
0.25154645238996304
0.25003625119411876
0.2481021556997475
0.24574984187743554
0.24298622725868307
0.23981945916684053
0.2362589008902507
0.2323151158383614
0.22799984972766849
0.22332601085035242
0.21830764848438114
0.21295992950968226
0.20729911330068557
0.20134252497113658
0.1951085270525496
0.18861648969299455
0.18188675946811536
0.17494062690130877
0.16780029279488656
0.16048883347876555
0.15303016508778336
0.1454490069831269
0.1377708444375522
0.1300218907081074
0.12222904862389107
0.11441987182003197
0.10662252575252165
0.09886574863179252
0.09117881241599404
0.0835914840077875
0.07613398680115192
0.06883696272717228
0.06173143495006405
0.05484877136678755
0.048220649065509734
0.04187901989990277
0.035856077337813236
0.030184224744213683
0.024896045259560334
0.020024273435729528
0.015601768792610023
0.011661491459186
0.008236480063572976
0.005359832036975303
0.0030646864969278076
0.0013842098754814614
0.000351584458203276

