# vtk DataFile Version 2.0
mesh vtk view
ASCII
DATASET UNSTRUCTURED_GRID
POINTS 101 double
0.0 0.0 0.0
1.0 0.0 0.0
0.009999999999981043 -1.1099143716522099e-13 0.006754308005126293
0.019999999999962242 -3.1200056400750305e-13 0.026592130639218947
0.02999999999994288 -4.720853221538277e-13 0.0588758577306092
0.03999999999992161 -5.943369512381886e-13 0.10296802259993715
0.04999999999989934 -6.819172928995858e-13 0.1582314631306027
0.059999999999877984 -7.37937812726095e-13 0.22402954194666166
0.06999999999986005 -7.656447690054242e-13 0.29972642251052894
0.07999999999984467 -7.681468605235999e-13 0.3846873979539087
0.08999999999982934 -7.489793592879809e-13 0.4782792694595356
0.09999999999981402 -7.113959010848434e-13 0.5798707710169251
0.10999999999979869 -6.589944547218533e-13 0.6888330373828252
0.11999999999978238 -5.95118953920568e-13 0.8045401120869348
0.12999999999976017 -5.2358730600598e-13 0.9263694923354143
0.13999999999973192 -4.492362621190983e-13 1.0537027076794945
0.14999999999970262 -3.752955624522307e-13 1.1859259293334372
0.15999999999967354 -3.0429391703146084e-13 1.3224306070464076
0.16999999999964432 -2.39597481914973e-13 1.4626141304564948
0.1799999999996151 -1.8272902886983885e-13 1.6058805118811812
0.18999999999958592 -1.3264190020272232e-13 1.751641087528219
0.1999999999995567 -8.942163330688978e-14 1.899315234144269
0.2099999999995275 -5.2547425864985803e-14 2.0483310981553555
0.2199999999994983 -2.4380702979376856e-14 2.198126334393273
0.22999999999946907 -7.41531028458205e-15 2.3481488515459983
0.23999999999943994 -1.62592830250098e-15 2.4978575615180056
0.24999999999941067 -1.0405010265185283e-15 2.646723129937447
0.2599999999993815 -1.6217334723424726e-15 2.7942287251022586
0.26999999999935226 -8.959615095270357e-16 2.9398707627162084
0.2799999999993232 -9.124580242440855e-16 3.0831596438285978
0.289999999999294 -6.504382579190565e-16 3.2236204834572355
0.2999999999992648 -7.612710165109268e-16 3.360793827444678
0.30999999999923555 -4.706809472304022e-16 3.4942363551711657
0.31999999999920636 -2.3086181807923254e-16 3.623521565825011
0.32999999999917723 1.1328925996212651e-16 3.7482404460118994
0.33999999999914804 5.984501028771369e-16 3.8680021165687397
0.34999999999911874 8.215490857506655e-16 3.9824344565352527
0.3599999999990896 9.20295415431997e-16 4.091184702327237
0.36999999999906036 1.0875636386286109e-15 4.19392002024924
0.3799999999990313 1.4221732240049774e-15 4.29032805058133
0.3899999999990021 2.115198145761272e-15 4.380117421574449
0.39999999999897284 1.6163582493728181e-15 4.463018231791093
0.40999999999894365 2.3812621203939e-15 4.538782499333336
0.41999999999891446 1.572455121456841e-15 4.607184576607444
0.4299999999988854 2.817096965349093e-15 4.668021529384227
0.4399999999988562 3.1990066560757e-15 4.721113479025803
0.44999999999882695 3.142353504384071e-15 4.766303906863383
0.4599999999987977 2.6973527655311777e-15 4.80345991982582
0.46999999999876846 3.92689417862149e-15 4.832472476535724
0.4799999999987393 3.4850133189869476e-15 4.853256573208059
0.4899999999987102 3.3120301819055474e-15 4.865751388805616
0.4999999999986919 3.317129889801186e-15 4.869920389025945
0.5099999999987074 4.0555309883037e-15 4.865751388815381
0.5199999999987337 4.5348284077896684e-15 4.853256573227412
0.5299999999987601 3.2793386595880553e-15 4.832472476564398
0.5399999999987865 3.844612445450168e-15 4.803459919863482
0.5499999999988128 3.1764950728616998e-15 4.766303906909633
0.5599999999988392 4.562440472816946e-15 4.721113479080186
0.5699999999988656 4.4824377802813984e-15 4.668021529446223
0.5799999999988921 3.9259806492932286e-15 4.607184576676474
0.5899999999989184 4.3417997799135895e-15 4.538782499408777
0.5999999999989447 3.842465667950341e-15 4.4630182318723115
0.6099999999989711 3.795500009968288e-15 4.380117421660785
0.6199999999989975 4.057465057112018e-15 4.290328050672135
0.6299999999990239 3.8477423955238e-15 4.193920020343859
0.6399999999990502 3.772393396081984e-15 4.091184702425034
0.6499999999990766 4.265536084700799e-15 3.9824344566355747
0.6599999999991031 4.21209650983466e-15 3.8680021166709437
0.6699999999991294 3.751061165252769e-15 3.74824044611536
0.6799999999991558 4.156669802161492e-15 3.6235215659290936
0.6899999999991823 4.171647450439524e-15 3.494236355275252
0.6999999999992086 3.8529568199848625e-15 3.3607938275481826
0.709999999999235 4.017059020280066e-15 3.2236204835596003
0.7199999999992613 4.1386587547157706e-15 3.0831596439293096
0.7299999999992878 3.9180524708880185e-15 2.939870762814792
0.7399999999993141 3.865776967348128e-15 2.7942287251982845
0.7499999999993405 3.8811142845842866e-15 2.646723130030533
0.759999999999367 3.4593200203409894e-15 2.4978575616078036
0.7699999999993933 2.580392440921799e-15 2.348148851632258
0.7799999999994197 2.9375354557104576e-15 2.198126334475824
0.789999999999446 3.0800704279184433e-15 2.048331098234071
0.7999999999994724 2.7811022612775904e-15 1.8993152342190491
0.8099999999994988 2.5618230159176998e-15 1.7516410875990092
0.8199999999995252 2.7448795052669587e-15 1.6058805119479411
0.8299999999995517 2.294050010488555e-15 1.462614130519192
0.839999999999578 2.2008102531557362e-15 1.3224306071050387
0.8499999999996044 1.9709850800082036e-15 1.1859259293880093
0.8599999999996307 1.7357417265893342e-15 1.0537027077300012
0.869999999999657 1.6664207074633095e-15 0.9263694923818699
0.8799999999996835 1.4863746162972958e-15 0.8045401121294259
0.8899999999997098 1.1826448939475672e-15 0.6888330374214279
0.8999999999997362 9.412701230543558e-16 0.5798707710516521
0.9099999999997626 9.474534006673974e-16 0.4782792694903973
0.9199999999997889 6.735493015525213e-16 0.38468739798092666
0.9299999999998153 5.751162127568045e-16 0.2997264225337352
0.9399999999998417 4.1911623871674634e-16 0.22402954196608302
0.9499999999998682 3.0806159453750296e-16 0.1582314631462787
0.9599999999998945 1.867541514858603e-16 0.10296802261194468
0.9699999999999208 1.0683319005594223e-16 0.058875857739048444
0.9799999999999472 5.582314397219374e-17 0.026592130644201472
0.9899999999999736 1.3342361683303595e-17 0.006754308006767737

CELLS 100 300
2 0 2
2 2 3
2 3 4
2 4 5
2 5 6
2 6 7
2 7 8
2 8 9
2 9 10
2 10 11
2 11 12
2 12 13
2 13 14
2 14 15
2 15 16
2 16 17
2 17 18
2 18 19
2 19 20
2 20 21
2 21 22
2 22 23
2 23 24
2 24 25
2 25 26
2 26 27
2 27 28
2 28 29
2 29 30
2 30 31
2 31 32
2 32 33
2 33 34
2 34 35
2 35 36
2 36 37
2 37 38
2 38 39
2 39 40
2 40 41
2 41 42
2 42 43
2 43 44
2 44 45
2 45 46
2 46 47
2 47 48
2 48 49
2 49 50
2 50 51
2 51 52
2 52 53
2 53 54
2 54 55
2 55 56
2 56 57
2 57 58
2 58 59
2 59 60
2 60 61
2 61 62
2 62 63
2 63 64
2 64 65
2 65 66
2 66 67
2 67 68
2 68 69
2 69 70
2 70 71
2 71 72
2 72 73
2 73 74
2 74 75
2 75 76
2 76 77
2 77 78
2 78 79
2 79 80
2 80 81
2 81 82
2 82 83
2 83 84
2 84 85
2 85 86
2 86 87
2 87 88
2 88 89
2 89 90
2 90 91
2 91 92
2 92 93
2 93 94
2 94 95
2 95 96
2 96 97
2 97 98
2 98 99
2 99 100
2 100 1

CELL_TYPES 100
3
3
3
3
3
3
3
3
3
3
3
3
3
3
3
3
3
3
3
3
3
3
3
3
3
3
3
3
3
3
3
3
3
3
3
3
3
3
3
3
3
3
3
3
3
3
3
3
3
3
3
3
3
3
3
3
3
3
3
3
3
3
3
3
3
3
3
3
3
3
3
3
3
3
3
3
3
3
3
3
3
3
3
3
3
3
3
3
3
3
3
3
3
3
3
3
3
3
3
3

POINT_DATA 101
SCALARS DISPL float 1
LOOKUP_TABLE default
0.0
0.0
0.0003515844581174384
0.0013842098752206826
0.0030646864964856725
0.005359832036345838
0.00823648006275103
0.011661491458167847
0.015601768791394096
0.020024273434315117
0.024896045257946586
0.030184224742400498
0.03585607733580124
0.04187901989769255
0.04822064906309868
0.05484877136417258
0.06173143494724591
0.06883696272415292
0.07613398679793251
0.08359148400436954
0.09117881241238036
0.09886574862798582
0.10662252574852522
0.11441987181585148
0.12222904861953336
0.13002189070358114
0.13777084443287071
0.14544900697830837
0.153030165082848
0.16048883347373544
0.16780029278978592
0.17494062689616344
0.1818867594629535
0.1886164896878459
0.19510852704744525
0.2013425249661082
0.20729911329576414
0.21295992950489973
0.2183076484797697
0.22332601084594425
0.2279998497234965
0.23231511583445766
0.2362589008866476
0.23981945916356837
0.2429862272557708
0.2457498418749094
0.24810215569762997
0.25003625119242945
0.2515464523887195
0.2526283345534738
0.253278731747059
0.25349574223610444
0.2532787317475673
0.2526283345544812
0.25154645239021206
0.25003625119438994
0.24810215570003746
0.24574984187774024
0.2429862272589979
0.2398194591671616
0.2362589008905746
0.23231511583868536
0.22799984972799053
0.22332601085067094
0.21830764848469497
0.21295992950999035
0.20729911330098624
0.20134252497142827
0.1951085270528307
0.18861648969326372
0.18188675946837152
0.1749406269015512
0.16780029279511435
0.16048883347897783
0.15303016508797962
0.14544900698330684
0.13777084443771614
0.13002189070825543
0.12222904862402349
0.11441987182014857
0.10662252575262261
0.09886574863187837
0.09117881241606524
0.08359148400784462
0.07613398680119611
0.06883696272720487
0.061731434950086574
0.05484877136680163
0.04822064906551686
0.041879019899904356
0.03585607733781064
0.030184224744208153
0.02489604525955304
0.020024273435721492
0.015601768792602059
0.011661491459178793
0.008236480063567017
0.00535983203697087
0.0030646864969249635
0.0013842098754800398
0.0003515844582028811

