# vtk DataFile Version 2.0
mesh vtk view
ASCII
DATASET UNSTRUCTURED_GRID
POINTS 101 double
0.0 0.0 0.0
1.0 0.0 0.0
0.009999999999981059 1.0333685529175746e-13 -0.006288493659945169
0.019999999999962277 2.9048328373112347e-13 -0.024758190595134878
0.029999999999942937 4.3952771372942575e-13 -0.05481545374918787
0.03999999999992168 5.533481959803824e-13 -0.09586677966201045
0.04999999999989943 6.348885140789246e-13 -0.14731894843194046
0.0599999999998781 6.870455497794677e-13 -0.20857922870896084
0.0699999999998602 7.128416814878087e-13 -0.2790556347511821
0.07999999999984485 7.151712149702481e-13 -0.35815723257777704
0.08999999999982952 6.973256103715684e-13 -0.44529449225542966
0.09999999999981422 6.6233411480313e-13 -0.5398796833605853
0.10999999999979891 6.135465612927599e-13 -0.6413273106667682
0.11999999999978263 5.540762674432874e-13 -0.7490545871154219
0.12999999999976045 4.874778366262571e-13 -0.8624819411398684
0.13999999999973223 4.182544509384708e-13 -0.9810335554257361
0.14999999999970295 3.494131098693182e-13 -1.1041379342069932
0.15999999999967388 2.833081296499808e-13 -1.2312284962156208
0.16999999999964466 2.2307351764497487e-13 -1.3617441904250123
0.17999999999961547 1.7012702687881545e-13 -1.4951301317514445
0.1899999999995863 1.2349418294736215e-13 -1.630838253905583
0.1999999999995571 8.325462411331117e-14 -1.7683279766170779
0.2099999999995279 4.8923465460504024e-14 -1.907066884489469
0.21999999999949874 2.269927518769569e-14 -2.046531414779943
0.22999999999946952 6.903909575300528e-15 -2.1862075514393773
0.2399999999994404 1.513795316121602e-15 -2.325591522792626
0.2499999999994111 9.687423350344918e-16 -2.4641905002865885
0.25999999999938195 1.5098897845947158e-15 -2.6015232957848613
0.2699999999993527 8.341710605941365e-16 -2.7371210549426763
0.2799999999993236 8.495298846410452e-16 -2.8705279442542113
0.28999999999929443 6.05580447028087e-16 -3.0013018294257017
0.29999999999926524 7.087695670963801e-16 -3.1290149427933205
0.309999999999236 4.3822019224899502e-16 -3.253254537573154
0.3199999999992068 2.1494031338411302e-16 -3.3736235268025965
0.32999999999917773 -1.0547620755094537e-16 -3.4897411049076306
0.33999999999914854 -5.571776819890585e-16 -3.601243349908826
0.3499999999991193 -7.648905281126885e-16 -3.7077838043604077
0.35999999999909005 -8.568267660918593e-16 -3.809034033201221
0.3699999999990608 -1.0125592497576722e-15 -3.904684156783775
0.3799999999990317 -1.324092312004634e-15 -3.9944433574377896
0.38999999999900253 -1.9693224115708396e-15 -4.07804035801759
0.3999999999989734 -1.5048852666574511e-15 -4.155223870977913
0.4099999999989441 -2.2170371465736307e-15 -4.225763016620691
0.4199999999989149 -1.4640099406667138e-15 -4.289447709255206
0.42999999999888583 -2.622814416014673e-15 -4.346089010116349
0.43999999999885664 -2.9783855073808235e-15 -4.395519445989541
0.44999999999882745 -2.9256394695989625e-15 -4.437593292596943
0.45999999999879815 -2.511328436873855e-15 -4.4721868219067975
0.4699999999987689 -3.6560738904406975e-15 -4.499198512636708
0.4799999999987398 -3.2446675728499166e-15 -4.51854922333164
0.48999999999871063 -3.0836143072913716e-15 -4.530182327508676
0.4999999999986923 -3.088362311194207e-15 -4.534063810472431
0.5099999999987078 -3.775839196006893e-15 -4.530182327517768
0.5199999999987341 -4.222081621045553e-15 -4.518549223349659
0.5299999999987606 -3.0531773727199136e-15 -4.499198512663405
0.5399999999987869 -3.5794667595570526e-15 -4.472186821941863
0.5499999999988132 -2.9574264471470994e-15 -4.4375932926400035
0.5599999999988396 -4.247789405726122e-15 -4.395519446040173
0.5699999999988661 -4.173304140261992e-15 -4.346089010174069
0.5799999999988925 -3.655223363135075e-15 -4.289447709319475
0.5899999999989188 -4.042365312333341e-15 -4.22576301669093
0.599999999998945 -3.577468035677903e-15 -4.155223871053531
0.6099999999989715 -3.5337413885911645e-15 -4.078040358097971
0.6199999999989978 -3.7776398807594644e-15 -3.9944433575223317
0.6299999999990242 -3.582380851004917e-15 -3.9046841568718693
0.6399999999990506 -3.512228334283226e-15 -3.8090340332922725
0.6499999999990769 -3.9713611823076395e-15 -3.7077838044538107
0.6599999999991033 -3.921607095363304e-15 -3.601243350003982
0.6699999999991296 -3.49236729178706e-15 -3.4897411050039553
0.6799999999991561 -3.870002919253803e-15 -3.3736235268995003
0.6899999999991825 -3.88394762627128e-15 -3.253254537670062
0.6999999999992088 -3.587235659985906e-15 -3.129014942889687
0.7099999999992352 -3.740020467157302e-15 -3.0013018295210068
0.7199999999992616 -3.853234013011235e-15 -2.8705279443479776
0.729999999999288 -3.647841955654362e-15 -2.7371210550344616
0.7399999999993143 -3.599171659255153e-15 -2.601523295874265
0.7499999999993405 -3.6134512304750246e-15 -2.4641905003732547
0.759999999999367 -3.220746225834714e-15 -2.325591522876231
0.7699999999993933 -2.402434341547882e-15 -2.1862075515196886
0.7799999999994197 -2.734946803592495e-15 -2.0465314148568017
0.789999999999446 -2.867651777717171e-15 -1.9070668845627554
0.7999999999994724 -2.5893021053274113e-15 -1.7683279766867008
0.8099999999994988 -2.385145566544065e-15 -1.6308382539714912
0.8199999999995252 -2.5555774704209615e-15 -1.4951301318136003
0.8299999999995517 -2.1358396649376197e-15 -1.3617441904833856
0.839999999999578 -2.04903023569672e-15 -1.2312284962702083
0.8499999999996044 -1.8350550744903962e-15 -1.1041379342578017
0.8599999999996307 -1.6160354006176558e-15 -0.9810335554727597
0.869999999999657 -1.5514951414313571e-15 -0.8624819411831203
0.8799999999996835 -1.3838660220698961e-15 -0.7490545871549826
0.8899999999997098 -1.101083177123597e-15 -0.6413273107027087
0.8999999999997362 -8.763549421540552e-16 -0.5398796833929174
0.9099999999997626 -8.821117868282665e-16 -0.44529449228416296
0.9199999999997889 -6.270976255833818e-16 -0.3581572326029317
0.9299999999998153 -5.354530256701282e-16 -0.27905563477278794
0.9399999999998417 -3.9021167052938447e-16 -0.2085792287270428
0.9499999999998682 -2.8681596732801997e-16 -0.14731894844653534
0.9599999999998945 -1.7387455483166305e-16 -0.09586677967318986
0.9699999999999208 -9.946538384518758e-17 -0.05481545375704509
0.9799999999999472 -5.197327197411142e-17 -0.024758190599773782
0.9899999999999736 -1.2422198808593001e-17 -0.00628849366147341

CELLS 100 300
2 0 2
2 2 3
2 3 4
2 4 5
2 5 6
2 6 7
2 7 8
2 8 9
2 9 10
2 10 11
2 11 12
2 12 13
2 13 14
2 14 15
2 15 16
2 16 17
2 17 18
2 18 19
2 19 20
2 20 21
2 21 22
2 22 23
2 23 24
2 24 25
2 25 26
2 26 27
2 27 28
2 28 29
2 29 30
2 30 31
2 31 32
2 32 33
2 33 34
2 34 35
2 35 36
2 36 37
2 37 38
2 38 39
2 39 40
2 40 41
2 41 42
2 42 43
2 43 44
2 44 45
2 45 46
2 46 47
2 47 48
2 48 49
2 49 50
2 50 51
2 51 52
2 52 53
2 53 54
2 54 55
2 55 56
2 56 57
2 57 58
2 58 59
2 59 60
2 60 61
2 61 62
2 62 63
2 63 64
2 64 65
2 65 66
2 66 67
2 67 68
2 68 69
2 69 70
2 70 71
2 71 72
2 72 73
2 73 74
2 74 75
2 75 76
2 76 77
2 77 78
2 78 79
2 79 80
2 80 81
2 81 82
2 82 83
2 83 84
2 84 85
2 85 86
2 86 87
2 87 88
2 88 89
2 89 90
2 90 91
2 91 92
2 92 93
2 93 94
2 94 95
2 95 96
2 96 97
2 97 98
2 98 99
2 99 100
2 100 1

CELL_TYPES 100
3
3
3
3
3
3
3
3
3
3
3
3
3
3
3
3
3
3
3
3
3
3
3
3
3
3
3
3
3
3
3
3
3
3
3
3
3
3
3
3
3
3
3
3
3
3
3
3
3
3
3
3
3
3
3
3
3
3
3
3
3
3
3
3
3
3
3
3
3
3
3
3
3
3
3
3
3
3
3
3
3
3
3
3
3
3
3
3
3
3
3
3
3
3
3
3
3
3
3
3

POINT_DATA 101
SCALARS DISPL float 1
LOOKUP_TABLE default
0.0
0.0
0.0003515844581174384
0.0013842098752206826
0.0030646864964856725
0.005359832036345838
0.00823648006275103
0.011661491458167847
0.015601768791394096
0.020024273434315117
0.024896045257946586
0.030184224742400498
0.03585607733580124
0.04187901989769255
0.04822064906309868
0.05484877136417258
0.06173143494724591
0.06883696272415292
0.07613398679793251
0.08359148400436954
0.09117881241238036
0.09886574862798582
0.10662252574852522
0.11441987181585148
0.12222904861953336
0.13002189070358114
0.13777084443287071
0.14544900697830837
0.153030165082848
0.16048883347373544
0.16780029278978592
0.17494062689616344
0.1818867594629535
0.1886164896878459
0.19510852704744525
0.2013425249661082
0.20729911329576414
0.21295992950489973
0.2183076484797697
0.22332601084594425
0.2279998497234965
0.23231511583445766
0.2362589008866476
0.23981945916356837
0.2429862272557708
0.2457498418749094
0.24810215569762997
0.25003625119242945
0.2515464523887195
0.2526283345534738
0.253278731747059
0.25349574223610444
0.2532787317475673
0.2526283345544812
0.25154645239021206
0.25003625119438994
0.24810215570003746
0.24574984187774024
0.2429862272589979
0.2398194591671616
0.2362589008905746
0.23231511583868536
0.22799984972799053
0.22332601085067094
0.21830764848469497
0.21295992950999035
0.20729911330098624
0.20134252497142827
0.1951085270528307
0.18861648969326372
0.18188675946837152
0.1749406269015512
0.16780029279511435
0.16048883347897783
0.15303016508797962
0.14544900698330684
0.13777084443771614
0.13002189070825543
0.12222904862402349
0.11441987182014857
0.10662252575262261
0.09886574863187837
0.09117881241606524
0.08359148400784462
0.07613398680119611
0.06883696272720487
0.061731434950086574
0.05484877136680163
0.04822064906551686
0.041879019899904356
0.03585607733781064
0.030184224744208153
0.02489604525955304
0.020024273435721492
0.015601768792602059
0.011661491459178793
0.008236480063567017
0.00535983203697087
0.0030646864969249635
0.0013842098754800398
0.0003515844582028811

