# vtk DataFile Version 2.0
mesh vtk view
ASCII
DATASET UNSTRUCTURED_GRID
POINTS 101 double
0.0 0.0 0.0
1.0 0.0 0.0
0.009999999999982058 -0.005356864971109468 -1.2894022342402162e-13
0.01999999999996447 -0.02109031051134972 -3.6672726515319285e-13
0.0299999999999464 -0.04669464579319908 -5.658483092479614e-13
0.039999999999926414 -0.08166429379511952 -7.305490740529391e-13
0.0499999999999054 -0.12549391904534812 -8.659974376858082e-13
0.059999999999885506 -0.1776786022457453 -9.787695356805177e-13
0.06999999999986926 -0.23771405924583608 -1.0732841275292328e-12
0.07999999999985553 -0.3050969018397535 -1.1522334528347369e-12
0.08999999999984168 -0.3793249378621041 -1.22150572438228e-12
0.09999999999982773 -0.45989750806321444 -1.283182115502369e-12
0.1099999999998139 -0.5463158572501796 -1.3358710748080893e-12
0.11999999999979893 -0.6380835371879608 -1.3881266193494769e-12
0.1299999999997782 -0.7347068387642273 -1.4249559355742608e-12
0.13999999999975124 -0.8356952509334311 -1.4218258532647492e-12
0.14999999999972316 -0.9405619439689684 -1.3772689895580044e-12
0.15999999999969516 -1.0488242745684708 -1.28861491741795e-12
0.16999999999966692 -1.1600043103759743 -1.1648533264401642e-12
0.17999999999963856 -1.2736293715053821 -9.978702008812115e-13
0.18999999999961026 -1.389232586673232 -8.021462316207889e-13
0.19999999999958207 -1.5063534615751784 -5.975440767215622e-13
0.20999999999955374 -1.6245384571698214 -3.865896670889601e-13
0.21999999999952527 -1.7433415755651431 -2.247476442943737e-13
0.22999999999949655 -1.8623249512377806 -1.5532842510114702e-13
0.23999999999946792 -1.981059445353346 -1.3920142395676477e-13
0.24999999999943912 -2.09912524099622 -1.2447268109818985e-13
0.2599999999994104 -2.2161124371612813 -1.0999943761541607e-13
0.2699999999993816 -2.3316216394066935 -9.382997335735532e-14
0.279999999999353 -2.445264545116383 -7.740581111177181e-14
0.2899999999993244 -2.5566645213734382 -6.036243661670037e-14
0.2999999999992959 -2.665457173501267 -4.317267382771955e-14
0.30999999999926725 -2.7712909023876455 -2.547026431633825e-14
0.3199999999992383 -2.873827448768129 -6.3975603952573324e-15
0.32999999999920926 -2.972742422709286 1.1078249916463156e-14
0.3399999999991801 -3.0677258165990042 2.867008401908076e-14
0.3499999999991508 -3.158482500020508 4.470849694330127e-14
0.35999999999912147 -3.2447326949587434 6.047803519865459e-14
0.3699999999990921 -3.3262124298621334 7.474062721264873e-14
0.37999999999906275 -3.4026739711597127 8.871027647661221e-14
0.38999999999903334 -3.473886230912575 1.0026149482155958e-13
0.39999999999900376 -3.5396351493599463 1.1126958168205587e-13
0.40999999999897424 -3.5997240512034736 1.2030375881156217e-13
0.41999999999894483 -3.65397397455848 1.292349058772211e-13
0.4299999999989157 -3.7022239715880234 1.3538731951079456e-13
0.43999999999888634 -3.7443313799241307 1.4051922842733454e-13
0.449999999998857 -3.780172064070866 1.4604805969867373e-13
0.4599999999988274 -3.809640626075243 1.4827055642404773e-13
0.4699999999987978 -3.832650584844847 1.5197504661773105e-13
0.4799999999987685 -3.8491345235846395 1.5195720622081593e-13
0.48999999999873906 -3.8590442049202798 1.5224636500332215e-13
0.4999999999987204 -3.8623506533705103 1.512520661702288e-13
0.5099999999987354 -3.8590442049272484 1.4956152788131081e-13
0.5199999999987612 -3.849134523598446 1.4604328094758017e-13
0.5299999999987871 -3.8326505848653047 1.415190419489574e-13
0.539999999998813 -3.8096406261021265 1.3536356013158415e-13
0.5499999999988386 -3.7801720641039007 1.2831115796526951e-13
0.5599999999988643 -3.7443313799630085 1.2175296910285272e-13
0.5699999999988901 -3.702223971632385 1.1232432114223705e-13
0.5799999999989158 -3.653973974607909 1.054678914273862e-13
0.5899999999989414 -3.5997240512575153 9.703751883142708e-14
0.5999999999989671 -3.539635149418128 8.961709976320631e-14
0.609999999998993 -3.4738862309744007 8.321508159871878e-14
0.6199999999990189 -3.4026739712246927 7.802847832363854e-14
0.6299999999990448 -3.326212429929772 7.134540860945817e-14
0.6399999999990702 -3.2447326950285587 6.514355021587675e-14
0.6499999999990956 -3.1584825000920316 5.629212761133716e-14
0.6599999999991208 -3.067725816671762 5.000018451498817e-14
0.6699999999991462 -2.9727424227828214 4.202987838835303e-14
0.6799999999991713 -2.873827448841973 3.491697966048888e-14
0.6899999999991964 -2.771290902461333 2.761898483665905e-14
0.6999999999992212 -2.6654571735743438 2.256895642200575e-14
0.7099999999992462 -2.556664521445473 1.5708117653914694e-14
0.719999999999271 -2.44526454518698 9.043803253130434e-15
0.729999999999296 -2.3316216394754825 2.629769840421314e-15
0.7399999999993211 -2.216112437227925 -3.864509615378694e-15
0.7499999999993464 -2.099125241060407 -1.0135872037751543e-14
0.7599999999993718 -1.9810594454148 -1.5964828140836035e-14
0.7699999999993971 -1.8623249512962639 -2.1946638008133727e-14
0.7799999999994224 -1.743341575620474 -2.7920422545221573e-14
0.7899999999994475 -1.6245384572218422 -3.095455687963028e-14
0.7999999999994728 -1.5063534616237149 -3.547236163595233e-14
0.8099999999994983 -1.3892325867181545 -3.911576297693254e-14
0.8199999999995241 -1.2736293715466007 -4.135887656606513e-14
0.8299999999995502 -1.1600043104134241 -4.3278851295732926e-14
0.8399999999995763 -1.0488242746021532 -4.374700972493367e-14
0.8499999999996025 -0.9405619439989283 -4.3591732099667e-14
0.8599999999996286 -0.835695250959737 -4.32704672872883e-14
0.8699999999996546 -0.7347068387869847 -4.1368715346702086e-14
0.8799999999996809 -0.6380835372073508 -3.9323486595369443e-14
0.889999999999707 -0.5463158572664046 -3.635065229984335e-14
0.8999999999997333 -0.45989750807645396 -3.2853217254131694e-14
0.9099999999997594 -0.3793249378725656 -2.877766248239293e-14
0.9199999999997857 -0.30509690184767563 -2.48930429695062e-14
0.929999999999812 -0.2377140592514911 -2.040027218302689e-14
0.9399999999998385 -0.17767860224942822 -1.598194034985429e-14
0.9499999999998652 -0.12549391904739088 -1.1806770986271518e-14
0.9599999999998918 -0.08166429379591145 -8.09141697090167e-15
0.9699999999999185 -0.046694645793175324 -4.849702116862439e-15
0.9799999999999454 -0.02109031051098233 -2.2846243369041146e-15
0.9899999999999726 -0.005356864970901509 -6.011586065016814e-16

CELLS 100 300
2 0 2
2 2 3
2 3 4
2 4 5
2 5 6
2 6 7
2 7 8
2 8 9
2 9 10
2 10 11
2 11 12
2 12 13
2 13 14
2 14 15
2 15 16
2 16 17
2 17 18
2 18 19
2 19 20
2 20 21
2 21 22
2 22 23
2 23 24
2 24 25
2 25 26
2 26 27
2 27 28
2 28 29
2 29 30
2 30 31
2 31 32
2 32 33
2 33 34
2 34 35
2 35 36
2 36 37
2 37 38
2 38 39
2 39 40
2 40 41
2 41 42
2 42 43
2 43 44
2 44 45
2 45 46
2 46 47
2 47 48
2 48 49
2 49 50
2 50 51
2 51 52
2 52 53
2 53 54
2 54 55
2 55 56
2 56 57
2 57 58
2 58 59
2 59 60
2 60 61
2 61 62
2 62 63
2 63 64
2 64 65
2 65 66
2 66 67
2 67 68
2 68 69
2 69 70
2 70 71
2 71 72
2 72 73
2 73 74
2 74 75
2 75 76
2 76 77
2 77 78
2 78 79
2 79 80
2 80 81
2 81 82
2 82 83
2 83 84
2 84 85
2 85 86
2 86 87
2 87 88
2 88 89
2 89 90
2 90 91
2 91 92
2 92 93
2 93 94
2 94 95
2 95 96
2 96 97
2 97 98
2 98 99
2 99 100
2 100 1

CELL_TYPES 100
3
3
3
3
3
3
3
3
3
3
3
3
3
3
3
3
3
3
3
3
3
3
3
3
3
3
3
3
3
3
3
3
3
3
3
3
3
3
3
3
3
3
3
3
3
3
3
3
3
3
3
3
3
3
3
3
3
3
3
3
3
3
3
3
3
3
3
3
3
3
3
3
3
3
3
3
3
3
3
3
3
3
3
3
3
3
3
3
3
3
3
3
3
3
3
3
3
3
3
3

POINT_DATA 101
SCALARS DISPL float 1
LOOKUP_TABLE default
0.0
0.0
0.0003515844582169249
0.0013842098755055742
0.003064686496929367
0.005359832036923327
0.008236480063438904
0.01166149145894428
0.015601768792238868
0.020024273435209582
0.02489604525887372
0.03018422474334474
0.035856077336748345
0.04187901989863015
0.04822064906401611
0.054848771365061035
0.061731434948097706
0.06883696272496163
0.07613398679869399
0.08359148400508222
0.09117881241304567
0.09886574862860695
0.1066225257491074
0.11441987181640047
0.12222904862005267
0.13002189070407402
0.13777084443333945
0.14544900697875293
0.15303016508326855
0.1604888334741321
0.16780029279015873
0.17494062689651257
0.1818867594632791
0.18861648968814798
0.19510852704772327
0.20134252496636132
0.2072991132959913
0.21295992950510012
0.21830764847994183
0.22332601084608764
0.22799984972361073
0.23231511583454278
0.23625890088670382
0.23981945916359637
0.24298622725577154
0.2457498418748839
0.24810215569757935
0.25003625119235434
0.25154645238862033
0.2526283345533505
0.25327873174691123
0.2534957422359316
0.2532787317473686
0.25262833455425665
0.25154645238996304
0.25003625119411876
0.2481021556997475
0.24574984187743554
0.24298622725868307
0.23981945916684053
0.2362589008902507
0.2323151158383614
0.22799984972766849
0.22332601085035242
0.21830764848438114
0.21295992950968226
0.20729911330068557
0.20134252497113658
0.1951085270525496
0.18861648969299455
0.18188675946811536
0.17494062690130877
0.16780029279488656
0.16048883347876555
0.15303016508778336
0.1454490069831269
0.1377708444375522
0.1300218907081074
0.12222904862389107
0.11441987182003197
0.10662252575252165
0.09886574863179252
0.09117881241599404
0.0835914840077875
0.07613398680115192
0.06883696272717228
0.06173143495006405
0.05484877136678755
0.048220649065509734
0.04187901989990277
0.035856077337813236
0.030184224744213683
0.024896045259560334
0.020024273435729528
0.015601768792610023
0.011661491459186
0.008236480063572976
0.005359832036975303
0.0030646864969278076
0.0013842098754814614
0.000351584458203276

