# vtk DataFile Version 2.0
mesh vtk view
ASCII
DATASET UNSTRUCTURED_GRID
POINTS 101 double
0.0 0.0 0.0
1.0 0.0 0.0
0.009999999999981055 5.740936405097636e-14 -0.003493607588858427
0.01999999999996227 1.6137960207284637e-13 -0.013754550330630487
0.029999999999942923 2.441820631830143e-13 -0.030453029860659925
0.03999999999992167 3.074156644335458e-13 -0.053259322034450246
0.04999999999989941 3.527158411549581e-13 -0.08184386023996691
0.059999999999878074 3.8169197209970423e-13 -0.11587734928275602
0.06999999999986017 3.960231563821159e-13 -0.15503090819510118
0.07999999999984482 3.9731734165013784e-13 -0.19897624032098724
0.08999999999982948 3.874031168730935e-13 -0.24738582903079423
0.09999999999981418 3.6796339711285e-13 -0.2999331574225474
0.10999999999979886 3.4085920071819994e-13 -0.35629295037042674
0.11999999999978257 3.078201485796041e-13 -0.4161414372863455
0.1299999999997604 2.708210203479206e-13 -0.4791566339665935
0.13999999999973217 2.32363583854706e-13 -0.5450186419031867
0.14999999999970287 1.9411839437184344e-13 -0.6134099634483295
0.1599999999996738 1.5739340536110042e-13 -0.6840158312309004
0.16999999999964457 1.2392973202498602e-13 -0.7565245502361179
0.17999999999961538 9.451501493267525e-14 -0.8306278509730246
0.18999999999958622 6.860787941520119e-14 -0.9060212521697683
0.199999999999557 4.6252568951839534e-14 -0.9824044314539321
0.20999999999952781 2.7179703033613345e-14 -1.0594816024941494
0.21999999999949862 1.2610708437608716e-14 -1.1369618970999684
0.2299999999994694 3.835505319611404e-15 -1.2145597507996542
0.2399999999994403 8.409973978453344e-16 -1.2919952904403476
0.249999999999411 5.381901861302732e-16 -1.368994722381438
0.25999999999938184 8.388276581081754e-16 -1.4452907198804783
0.2699999999993526 4.634283669967425e-16 -1.5206228083014868
0.2799999999993235 4.719610470228028e-16 -1.5947377468078952
0.2899999999992943 3.3643358168227055e-16 -1.6673899052365009
0.29999999999926513 3.937608706091e-16 -1.738341634885178
0.3099999999992359 2.4345566236055277e-16 -1.8073636319850854
0.3199999999992067 1.194112852133961e-16 -1.874235292668109
0.3299999999991776 -5.859789308385854e-17 -1.9387450582820167
0.33999999999914843 -3.09543156660588e-16 -2.0006907499493476
0.3499999999991192 -4.249391822848269e-16 -2.059879891311337
0.35999999999908994 -4.760148700510329e-16 -2.1161300184451224
0.3699999999990607 -5.625329165320401e-16 -2.169268975990986
0.3799999999990316 -7.356068400025744e-16 -2.2191351985765495
0.3899999999990024 -1.0940680064282441e-15 -2.265577976676439
0.3999999999989733 -8.360473703652506e-16 -2.308457706098841
0.409999999998944 -1.2316873036520172e-15 -2.3476461203448284
0.4199999999989148 -8.133388559259521e-16 -2.383026505141781
0.4299999999988857 -1.4571191200081516e-15 -2.4144938945090826
0.43999999999885653 -1.6546586152115686e-15 -2.4419552477719666
0.44999999999882734 -1.6253552608883123e-15 -2.465329606998301
0.45999999999879804 -1.3951824649299192e-15 -2.484548234392665
0.4699999999987688 -2.031152161355943e-15 -2.4995547292426155
0.4799999999987397 -1.8025930960277313e-15 -2.5103051240731333
0.4899999999987105 -1.7131190596063175e-15 -2.516767959727042
0.4999999999986922 -1.7157568395523373e-15 -2.5189243391513503
0.5099999999987077 -2.0976884422260517e-15 -2.516767959732093
0.519999999998734 -2.3456009005808627e-15 -2.510305124083144
0.5299999999987605 -1.696209651511063e-15 -2.4995547292574467
0.5399999999987868 -1.9885926441983625e-15 -2.484548234412146
0.5499999999988131 -1.6430146928594997e-15 -2.4653296070222237
0.5599999999988395 -2.3598830031811785e-15 -2.441955247800096
0.569999999998866 -2.318502300145551e-15 -2.4144938945411494
0.5799999999988924 -2.0306796461861527e-15 -2.383026505177486
0.5899999999989187 -2.245758506851856e-15 -2.34764612038385
0.599999999998945 -1.9874822420432796e-15 -2.3084577061408504
0.6099999999989715 -1.9631896603284244e-15 -2.265577976721095
0.6199999999989978 -2.098688822644147e-15 -2.2191351986235177
0.6299999999990242 -1.9902115838916202e-15 -2.1692689760399273
0.6399999999990506 -1.951237963490681e-15 -2.116130018495707
0.6499999999990769 -2.2063117679486885e-15 -2.059879891363228
0.6599999999991033 -2.1786706085351688e-15 -2.000690750002212
0.6699999999991296 -1.940204050992811e-15 -1.9387450583355306
0.6799999999991561 -2.150001621807668e-15 -1.8742352927219446
0.6899999999991825 -2.1577486812618223e-15 -1.807363632038923
0.6999999999992087 -1.99290869999217e-15 -1.7383416349387149
0.7099999999992351 -2.0777891484207233e-15 -1.667389905289448
0.7199999999992615 -2.1406855627840192e-15 -1.5947377468599875
0.7299999999992879 -2.026578864252423e-15 -1.5206228083524784
0.7399999999993142 -1.9995398106973075e-15 -1.445290719930147
0.7499999999993405 -2.007472905819458e-15 -1.3689947224295858
0.759999999999367 -1.789303458797063e-15 -1.2919952904867948
0.7699999999993933 -1.3346857453043786e-15 -1.2145597508442714
0.7799999999994197 -1.5194148908847192e-15 -1.1369618971426676
0.789999999999446 -1.5931398765095393e-15 -1.0594816025348641
0.7999999999994724 -1.4385011696263397e-15 -0.9824044314926115
0.8099999999994988 -1.3250808703022582e-15 -0.906021252206384
0.8199999999995252 -1.4197652613449785e-15 -0.8306278510075557
0.8299999999995517 -1.186577591632011e-15 -0.7565245502685475
0.839999999999578 -1.1383501309426221e-15 -0.6840158312612268
0.8499999999996044 -1.0194750413835534e-15 -0.6134099634765565
0.8599999999996307 -8.977974447875866e-16 -0.5450186419293109
0.869999999999657 -8.619417452396428e-16 -0.47915663399062236
0.8799999999996835 -7.688144567054978e-16 -0.41614143730832365
0.8899999999997098 -6.117128761797761e-16 -0.35629295039039366
0.8999999999997362 -4.868638567522529e-16 -0.29993315744050963
0.9099999999997626 -4.900621037934814e-16 -0.24738582904675718
0.9199999999997889 -3.483875697685454e-16 -0.19897624033496203
0.9299999999998153 -2.974739031500712e-16 -0.15503090820710438
0.9399999999998417 -2.167842614052136e-16 -0.11587734929280155
0.9499999999998682 -1.593422040711222e-16 -0.08184386024807519
0.9599999999998945 -9.659697490647946e-17 -0.053259322040661035
0.9699999999999208 -5.525854658065976e-17 -0.03045302986502505
0.9799999999999472 -2.887403998561745e-17 -0.013754550333207655
0.9899999999999736 -6.9012215603294445e-18 -0.0034936075897074497

CELLS 100 300
2 0 2
2 2 3
2 3 4
2 4 5
2 5 6
2 6 7
2 7 8
2 8 9
2 9 10
2 10 11
2 11 12
2 12 13
2 13 14
2 14 15
2 15 16
2 16 17
2 17 18
2 18 19
2 19 20
2 20 21
2 21 22
2 22 23
2 23 24
2 24 25
2 25 26
2 26 27
2 27 28
2 28 29
2 29 30
2 30 31
2 31 32
2 32 33
2 33 34
2 34 35
2 35 36
2 36 37
2 37 38
2 38 39
2 39 40
2 40 41
2 41 42
2 42 43
2 43 44
2 44 45
2 45 46
2 46 47
2 47 48
2 48 49
2 49 50
2 50 51
2 51 52
2 52 53
2 53 54
2 54 55
2 55 56
2 56 57
2 57 58
2 58 59
2 59 60
2 60 61
2 61 62
2 62 63
2 63 64
2 64 65
2 65 66
2 66 67
2 67 68
2 68 69
2 69 70
2 70 71
2 71 72
2 72 73
2 73 74
2 74 75
2 75 76
2 76 77
2 77 78
2 78 79
2 79 80
2 80 81
2 81 82
2 82 83
2 83 84
2 84 85
2 85 86
2 86 87
2 87 88
2 88 89
2 89 90
2 90 91
2 91 92
2 92 93
2 93 94
2 94 95
2 95 96
2 96 97
2 97 98
2 98 99
2 99 100
2 100 1

CELL_TYPES 100
3
3
3
3
3
3
3
3
3
3
3
3
3
3
3
3
3
3
3
3
3
3
3
3
3
3
3
3
3
3
3
3
3
3
3
3
3
3
3
3
3
3
3
3
3
3
3
3
3
3
3
3
3
3
3
3
3
3
3
3
3
3
3
3
3
3
3
3
3
3
3
3
3
3
3
3
3
3
3
3
3
3
3
3
3
3
3
3
3
3
3
3
3
3
3
3
3
3
3
3

POINT_DATA 101
SCALARS DISPL float 1
LOOKUP_TABLE default
0.0
0.0
0.0003515844581174384
0.0013842098752206826
0.0030646864964856725
0.005359832036345838
0.00823648006275103
0.011661491458167847
0.015601768791394096
0.020024273434315117
0.024896045257946586
0.030184224742400498
0.03585607733580124
0.04187901989769255
0.04822064906309868
0.05484877136417258
0.06173143494724591
0.06883696272415292
0.07613398679793251
0.08359148400436954
0.09117881241238036
0.09886574862798582
0.10662252574852522
0.11441987181585148
0.12222904861953336
0.13002189070358114
0.13777084443287071
0.14544900697830837
0.153030165082848
0.16048883347373544
0.16780029278978592
0.17494062689616344
0.1818867594629535
0.1886164896878459
0.19510852704744525
0.2013425249661082
0.20729911329576414
0.21295992950489973
0.2183076484797697
0.22332601084594425
0.2279998497234965
0.23231511583445766
0.2362589008866476
0.23981945916356837
0.2429862272557708
0.2457498418749094
0.24810215569762997
0.25003625119242945
0.2515464523887195
0.2526283345534738
0.253278731747059
0.25349574223610444
0.2532787317475673
0.2526283345544812
0.25154645239021206
0.25003625119438994
0.24810215570003746
0.24574984187774024
0.2429862272589979
0.2398194591671616
0.2362589008905746
0.23231511583868536
0.22799984972799053
0.22332601085067094
0.21830764848469497
0.21295992950999035
0.20729911330098624
0.20134252497142827
0.1951085270528307
0.18861648969326372
0.18188675946837152
0.1749406269015512
0.16780029279511435
0.16048883347897783
0.15303016508797962
0.14544900698330684
0.13777084443771614
0.13002189070825543
0.12222904862402349
0.11441987182014857
0.10662252575262261
0.09886574863187837
0.09117881241606524
0.08359148400784462
0.07613398680119611
0.06883696272720487
0.061731434950086574
0.05484877136680163
0.04822064906551686
0.041879019899904356
0.03585607733781064
0.030184224744208153
0.02489604525955304
0.020024273435721492
0.015601768792602059
0.011661491459178793
0.008236480063567017
0.00535983203697087
0.0030646864969249635
0.0013842098754800398
0.0003515844582028811

