# vtk DataFile Version 2.0
mesh vtk view
ASCII
DATASET UNSTRUCTURED_GRID
POINTS 101 double
0.0 0.0 0.0
1.0 0.218325104930277 0.0
0.009999999999981052 0.002078909133067817 0.0
0.01999999999996226 0.00790453218055269 0.0
0.02999999999994291 0.016861222752037962 0.0
0.03999999999992165 0.0283367002731415 0.0
0.04999999999989939 0.04172558686755407 0.0
0.05999999999987805 0.05643395079807471 0.0
0.06999999999986013 0.07188461495812619 0.0
0.07999999999984476 0.0875229935281713 0.0
0.08999999999982944 0.10282322663912795 0.0
0.09999999999981413 0.11729439192841248 0.0
0.1099999999997988 0.13048658335375032 0.0
0.1199999999997825 0.14199666157625673 0.0
0.1299999999997603 0.15147349658598772 0.0
0.1399999999997321 0.1586225418899068 0.0
0.1499999999997028 0.16320960031195542 0.0
0.1599999999996737 0.16506366400286365 0.0
0.1699999999996445 0.16407873530154124 0.0
0.1799999999996153 0.16021456026216943 0.0
0.1899999999995861 0.15349623255629286 0.0
0.1999999999995569 0.1440126516446441 0.0
0.2099999999995277 0.1319138451394744 0.0
0.2199999999994985 0.11740719068883505 0.0
0.2299999999994693 0.10075259705806028 0.0
0.2399999999994402 0.08225672692233577 0.0
0.2499999999994109 0.06226636480298035 0.0
0.2599999999993817 0.041161052198716484 0.0
0.2699999999993525 0.019345127940832478 0.0
0.2799999999993234 -0.0027606751546394074 0.0
0.2899999999992942 -0.024727916388735758 0.0
0.299999999999265 -0.04612924855681309 0.0
0.3099999999992358 -0.06654716405177045 0.0
0.3199999999992066 -0.08558251557663106 0.0
0.3299999999991775 -0.10286264526542513 0.0
0.3399999999991483 -0.11804896331881538 0.0
0.349999999999119 -0.13084382780512765 0.0
0.3599999999990898 -0.14099659083945112 0.0
0.3699999999990606 -0.14830869265357832 0.0
0.3799999999990315 -0.152637703777514 0.0
0.3899999999990023 -0.15390023628958774 0.0
0.3999999999989731 -0.15207366743702677 0.0
0.4099999999989439 -0.14719664243349465 0.0
0.4199999999989147 -0.13936834743063387 0.0
0.4299999999988856 -0.12874656805157855 0.0
0.4399999999988564 -0.11554457297596757 0.0
0.4499999999988272 -0.1000268853945704 0.0
0.4599999999987979 -0.08250402723969513 0.0
0.4699999999987687 -0.06332634150194291 0.0
0.4799999999987396 -0.042877016256495454 0.0
0.4899999999987104 -0.021564449874885365 0.0
0.4999999999986921 0.000185890026234369 0.0
0.5099999999987076 0.021939951311342402 0.0
0.5199999999987339 0.04326375634412343 0.0
0.5299999999987604 0.06373206249718827 0.0
0.5399999999987867 0.0829368513824438 0.0
0.549999999998813 0.100495477509281 0.0
0.5599999999988394 0.11605831393501724 0.0
0.5699999999988659 0.1293157425733416 0.0
0.5799999999988923 0.14000434997182853 0.0
0.5899999999989186 0.14791220529774649 0.0
0.5999999999989449 0.1528831156661512 0.0
0.6099999999989714 0.15481977444034314 0.0
0.6199999999989977 0.1536857403248302 0.0
0.6299999999990241 0.14950620851460736 0.0
0.6399999999990504 0.1423675593960545 0.0
0.6499999999990768 0.13241569483331192 0.0
0.6599999999991032 0.11985319643302358 0.0
0.6699999999991295 0.10493536387697602 0.0
0.679999999999156 0.0879652139777024 0.0
0.6899999999991824 0.06928754210062482 0.0
0.6999999999992087 0.04928216659380614 0.0
0.7099999999992351 0.02835649349990776 0.0
0.7199999999992615 0.006937552769354028 0.0
0.7299999999992879 -0.01453633182200233 0.0
0.7399999999993142 -0.03562406903322287 0.0
0.7499999999993405 -0.05589034828105277 0.0
0.759999999999367 -0.07491403390557483 0.0
0.7699999999993933 -0.0922962322579164 0.0
0.7799999999994197 -0.10766786392943054 0.0
0.789999999999446 -0.12069658229316839 0.0
0.7999999999994724 -0.131092891393852 0.0
0.8099999999994988 -0.1386153308416773 0.0
0.8199999999995252 -0.143074612419475 0.0
0.8299999999995517 -0.14433661223010108 0.0
0.839999999999578 -0.142324142974334 0.0
0.8499999999996044 -0.13701745290310047 0.0
0.8599999999996307 -0.1284534206456543 0.0
0.869999999999657 -0.11672343797049732 0.0
0.8799999999996835 -0.10196999506888245 0.0
0.8899999999997098 -0.08438200463887402 0.0
0.8999999999997362 -0.06418892137469472 0.0
0.9099999999997626 -0.04165373192883358 0.0
0.9199999999997889 -0.01706490653313866 0.0
0.9299999999998153 0.009272583210006414 0.0
0.9399999999998417 0.037047065738384365 0.0
0.9499999999998682 0.06595066897777006 0.0
0.9599999999998945 0.09569039403236336 0.0
0.9699999999999208 0.12599964087919993 0.0
0.9799999999999472 0.15665006979892235 0.0
0.9899999999999736 0.18746369284235584 0.0

CELLS 100 300
2 0 2
2 2 3
2 3 4
2 4 5
2 5 6
2 6 7
2 7 8
2 8 9
2 9 10
2 10 11
2 11 12
2 12 13
2 13 14
2 14 15
2 15 16
2 16 17
2 17 18
2 18 19
2 19 20
2 20 21
2 21 22
2 22 23
2 23 24
2 24 25
2 25 26
2 26 27
2 27 28
2 28 29
2 29 30
2 30 31
2 31 32
2 32 33
2 33 34
2 34 35
2 35 36
2 36 37
2 37 38
2 38 39
2 39 40
2 40 41
2 41 42
2 42 43
2 43 44
2 44 45
2 45 46
2 46 47
2 47 48
2 48 49
2 49 50
2 50 51
2 51 52
2 52 53
2 53 54
2 54 55
2 55 56
2 56 57
2 57 58
2 58 59
2 59 60
2 60 61
2 61 62
2 62 63
2 63 64
2 64 65
2 65 66
2 66 67
2 67 68
2 68 69
2 69 70
2 70 71
2 71 72
2 72 73
2 73 74
2 74 75
2 75 76
2 76 77
2 77 78
2 78 79
2 79 80
2 80 81
2 81 82
2 82 83
2 83 84
2 84 85
2 85 86
2 86 87
2 87 88
2 88 89
2 89 90
2 90 91
2 91 92
2 92 93
2 93 94
2 94 95
2 95 96
2 96 97
2 97 98
2 98 99
2 99 100
2 100 1

CELL_TYPES 100
3
3
3
3
3
3
3
3
3
3
3
3
3
3
3
3
3
3
3
3
3
3
3
3
3
3
3
3
3
3
3
3
3
3
3
3
3
3
3
3
3
3
3
3
3
3
3
3
3
3
3
3
3
3
3
3
3
3
3
3
3
3
3
3
3
3
3
3
3
3
3
3
3
3
3
3
3
3
3
3
3
3
3
3
3
3
3
3
3
3
3
3
3
3
3
3
3
3
3
3

POINT_DATA 101
SCALARS MODE5_4.0139_Hz float 1
LOOKUP_TABLE default
0.0
0.25471262241865644
0.0024253939885791193
0.009221954210644803
0.019671426544044284
0.03305948365199841
0.04867985134547974
0.06583960926442048
0.08386538411781387
0.10211015911619983
0.11996043107898258
0.13684345724981453
0.152234347246042
0.16566277183896616
0.17671907935031897
0.18505963220489122
0.19041120036394796
0.19257427467000757
0.1914251911851314
0.18691698697253095
0.17907893798234162
0.16801476025208475
0.15389948599605344
0.13697505580364086
0.11754469656773697
0.09596618140939171
0.07264409227014372
0.048021227565169224
0.02256931593097122
-0.0032207876804126413
-0.028849235786858378
-0.053817456649615264
-0.07763835806039884
-0.09984626817273622
-0.12000641947632928
-0.1377237905386179
-0.15265113243931558
-0.16449602264602628
-0.17302680809584134
-0.1780773210737663
-0.17955027567118567
-0.1774192786765312
-0.1717294161724104
-0.16259640533573946
-0.15020432939350828
-0.13480200180529547
-0.11669803296033211
-0.09625469844631097
-0.07388073175226671
-0.050023185632578016
-0.02515852485403292
0.00021687169727343047
0.025596609863232797
0.05047438240147733
0.07435407291338629
0.09675965994618442
0.11724472376082781
0.13540136625752008
0.1508683663355652
0.1633384083004666
0.17256423951403752
0.17836363494384302
0.1806230701804003
0.17930003037896852
0.17442390993370854
0.16609548596206355
0.15448497730553054
0.13982872917186082
0.12242459118980534
0.10262608297398612
0.08083546578406227
0.057495861026107146
0.03308257574989238
0.008093811564246364
-0.01695905379233605
-0.04156141387209334
-0.06520540632789489
-0.08739970622317061
-0.10767893763423578
-0.12561250791766893
-0.14081267934202976
-0.15294170662616063
-0.1617178859819568
-0.16692038115605412
-0.16839271426845123
-0.16604483347005627
-0.15985369505361718
-0.14986232408659664
-0.1361773442989135
-0.1189649942470295
-0.09844567207868633
-0.07488707493714382
-0.04859602058363917
-0.0199090576219951
0.01081801374500748
0.04322157669478175
0.07694244714073173
0.11163879303775723
0.1469995810257332
0.18275841476540938
0.2187076416494151

