# vtk DataFile Version 2.0
mesh vtk view
ASCII
DATASET UNSTRUCTURED_GRID
POINTS 101 double
0.0 0.0 0.0
1.0 0.0 0.0
0.009999999999981095 -0.0002329071726569335 -5.606096670609638e-15
0.019999999999962357 -0.0009169700222325971 -1.594466370231274e-14
0.029999999999943062 -0.002030201991008657 -2.4602100402085292e-14
0.039999999999921855 -0.0035506214693530247 -3.176300321969302e-14
0.04999999999989965 -0.005456257349797748 -3.765206250807863e-14
0.05999999999987837 -0.007725156619380234 -4.255519720350079e-14
0.06999999999986053 -0.010335393880253748 -4.666452728387971e-14
0.07999999999984524 -0.013265082688684943 -5.0097106644988585e-14
0.08999999999982997 -0.01649238860270019 -5.3108944538360026e-14
0.09999999999981472 -0.01999554382883542 -5.579052676097259e-14
0.10999999999979945 -0.023752863358703472 -5.808135107861261e-14
0.11999999999978321 -0.027742762486433092 -6.035333127606424e-14
0.12999999999976108 -0.03194377559844468 -6.19546058945331e-14
0.13999999999973292 -0.036334576127540506 -6.181851535933696e-14
0.14999999999970368 -0.04089399756386821 -5.988126041556544e-14
0.15999999999967465 -0.0456010554160205 -5.6026735539910896e-14
0.16999999999964546 -0.05043497001634673 -5.06457968017463e-14
0.1799999999996163 -0.05537519006545142 -4.3385660907878783e-14
0.18999999999958717 -0.06040141681187969 -3.487592311394736e-14
0.19999999999955798 -0.06549362876413822 -2.5980177248763588e-14
0.20999999999952884 -0.07063210683347053 -1.6808246395172187e-14
0.21999999999949968 -0.07579745980718018 -9.771636708451035e-15
0.2299999999994705 -0.0809706500538166 -6.7534097870063954e-15
0.23999999999944138 -0.086133019363189 -6.052235824207167e-15
0.2499999999994121 -0.09126631482592266 -5.4118556999213004e-15
0.25999999999938295 -0.0963527146591862 -4.782584244148528e-15
0.26999999999935376 -0.1013748538872476 -4.079564059015451e-15
0.2799999999993247 -0.10631584978766888 -3.3654700483379066e-15
0.28999999999929554 -0.11115932701623651 -2.6244537659434954e-15
0.29999999999926635 -0.11588944232614212 -1.8770727751182422e-15
0.30999999999923716 -0.12049090879946292 -1.1074027963625333e-15
0.319999999999208 -0.12494901951165785 -2.781547997937972e-16
0.3299999999991789 -0.12924967055257772 4.816630398462245e-16
0.3399999999991497 -0.13337938333039157 1.2465253921339467e-15
0.3499999999991204 -0.13732532608784823 1.943847693187013e-15
0.3599999999990912 -0.1410753345634237 2.629479791245853e-15
0.36999999999906197 -0.1446179317331363 3.2495924875064682e-15
0.37999999999903283 -0.14794234657216151 3.8569685424614025e-15
0.38999999999900364 -0.1510385317788077 4.359195427024332e-15
0.39999999999897445 -0.15389718040695427 4.837807899219824e-15
0.4099999999989452 -0.15650974135667284 5.230598209198358e-15
0.419999999998916 -0.15886843367645573 5.618908951183529e-15
0.42999999999888694 -0.16096625963426198 5.886405196121506e-15
0.4399999999988577 -0.16279701651844056 6.109531670753679e-15
0.4499999999988285 -0.16435530713351598 6.349915639072774e-15
0.4599999999987992 -0.16563654895979327 6.44654593148034e-15
0.46999999999876996 -0.16663698194977603 6.607610722510049e-15
0.4799999999987409 -0.16735367493846268 6.6068350530789564e-15
0.48999999999871163 -0.1677845306487079 6.6194071740574884e-15
0.4999999999986933 -0.16792828927697878 6.576176790009951e-15
0.5099999999987088 -0.1677845306490109 6.502675125274387e-15
0.5199999999987351 -0.16735367493906297 6.349707867286097e-15
0.5299999999987615 -0.1666369819506655 6.153001823867716e-15
0.5399999999987878 -0.1656365489609621 5.885372179634096e-15
0.5499999999988141 -0.16435530713495228 5.5787459984899815e-15
0.5599999999988405 -0.16279701652013087 5.2936073522979464e-15
0.5699999999988669 -0.1609662596361907 4.883666136619005e-15
0.5799999999988933 -0.15886843367860481 4.58556049684288e-15
0.5899999999989196 -0.1565097413590225 4.219022557888136e-15
0.5999999999989459 -0.1538971804094839 3.896395641878537e-15
0.6099999999989723 -0.15103853178149576 3.618047026031253e-15
0.6199999999989986 -0.1479423465749867 3.3925425358103728e-15
0.629999999999025 -0.14461793173607712 3.1019742873677485e-15
0.6399999999990513 -0.14107533456645915 2.832328270255512e-15
0.6499999999990775 -0.13732532609095796 2.4474838091885735e-15
0.659999999999104 -0.13337938333355492 2.173921065869052e-15
0.6699999999991303 -0.1292496705557749 1.827386016884915e-15
0.6799999999991566 -0.12494901951486845 1.518129550456039e-15
0.6899999999991829 -0.1204909088026667 1.2008254276808289e-15
0.6999999999992093 -0.11588944232931936 9.812589748698157e-16
0.7099999999992356 -0.11115932701936845 6.829616371267261e-16
0.7199999999992619 -0.10631584979073831 3.932088370926278e-16
0.7299999999992882 -0.10137485389023843 1.1433781914875284e-16
0.7399999999993145 -0.09635271466208374 -1.6802215719037806e-16
0.7499999999993407 -0.09126631482871339 -4.4069008859789337e-16
0.7599999999993672 -0.08613301936586092 -6.941229626450454e-16
0.7699999999993934 -0.08097065005635934 -9.542016525275538e-16
0.7799999999994198 -0.07579745980958587 -1.2139314150096343e-15
0.7899999999994461 -0.0706321068357323 -1.3458502991143606e-15
0.7999999999994724 -0.06549362876624851 -1.5422765928674935e-15
0.8099999999994988 -0.06040141681383284 -1.7006853468231549e-15
0.8199999999995252 -0.055375190067243535 -1.7982120246115283e-15
0.8299999999995515 -0.05043497001797499 -1.8816891867709976e-15
0.8399999999995779 -0.045601055417484944 -1.9020439010840737e-15
0.8499999999996043 -0.040893997565170814 -1.895292699985523e-15
0.8599999999996306 -0.03633457612868423 -1.8813246646647096e-15
0.8699999999996569 -0.031943775599434135 -1.7986397976827002e-15
0.8799999999996834 -0.027742762487276137 -1.7097168084943243e-15
0.8899999999997097 -0.02375286335940891 -1.5804631434714507e-15
0.8999999999997361 -0.019995543829411055 -1.4284007501796396e-15
0.9099999999997624 -0.016492388603155033 -1.2512027166257802e-15
0.9199999999997888 -0.013265082689029381 -1.0823062160654875e-15
0.9299999999998152 -0.01033539388049962 -8.869683557837783e-16
0.9399999999998416 -0.007725156619540362 -6.948669717327955e-16
0.9499999999998681 -0.005456257349886563 -5.133378689683272e-16
0.9599999999998944 -0.0035506214693874563 -3.518007378652902e-16
0.9699999999999207 -0.0020302019910076238 -2.108566137766279e-16
0.9799999999999471 -0.0009169700222166235 -9.93314929088746e-17
0.9899999999999736 -0.0002329071726478918 -2.613733071746442e-17

CELLS 100 300
2 0 2
2 2 3
2 3 4
2 4 5
2 5 6
2 6 7
2 7 8
2 8 9
2 9 10
2 10 11
2 11 12
2 12 13
2 13 14
2 14 15
2 15 16
2 16 17
2 17 18
2 18 19
2 19 20
2 20 21
2 21 22
2 22 23
2 23 24
2 24 25
2 25 26
2 26 27
2 27 28
2 28 29
2 29 30
2 30 31
2 31 32
2 32 33
2 33 34
2 34 35
2 35 36
2 36 37
2 37 38
2 38 39
2 39 40
2 40 41
2 41 42
2 42 43
2 43 44
2 44 45
2 45 46
2 46 47
2 47 48
2 48 49
2 49 50
2 50 51
2 51 52
2 52 53
2 53 54
2 54 55
2 55 56
2 56 57
2 57 58
2 58 59
2 59 60
2 60 61
2 61 62
2 62 63
2 63 64
2 64 65
2 65 66
2 66 67
2 67 68
2 68 69
2 69 70
2 70 71
2 71 72
2 72 73
2 73 74
2 74 75
2 75 76
2 76 77
2 77 78
2 78 79
2 79 80
2 80 81
2 81 82
2 82 83
2 83 84
2 84 85
2 85 86
2 86 87
2 87 88
2 88 89
2 89 90
2 90 91
2 91 92
2 92 93
2 93 94
2 94 95
2 95 96
2 96 97
2 97 98
2 98 99
2 99 100
2 100 1

CELL_TYPES 100
3
3
3
3
3
3
3
3
3
3
3
3
3
3
3
3
3
3
3
3
3
3
3
3
3
3
3
3
3
3
3
3
3
3
3
3
3
3
3
3
3
3
3
3
3
3
3
3
3
3
3
3
3
3
3
3
3
3
3
3
3
3
3
3
3
3
3
3
3
3
3
3
3
3
3
3
3
3
3
3
3
3
3
3
3
3
3
3
3
3
3
3
3
3
3
3
3
3
3
3

POINT_DATA 101
SCALARS DISPL float 1
LOOKUP_TABLE default
0.0
0.0
0.0003515844582169249
0.0013842098755055742
0.003064686496929367
0.005359832036923327
0.008236480063438904
0.01166149145894428
0.015601768792238868
0.020024273435209582
0.02489604525887372
0.03018422474334474
0.035856077336748345
0.04187901989863015
0.04822064906401611
0.054848771365061035
0.061731434948097706
0.06883696272496163
0.07613398679869399
0.08359148400508222
0.09117881241304567
0.09886574862860695
0.1066225257491074
0.11441987181640047
0.12222904862005267
0.13002189070407402
0.13777084443333945
0.14544900697875293
0.15303016508326855
0.1604888334741321
0.16780029279015873
0.17494062689651257
0.1818867594632791
0.18861648968814798
0.19510852704772327
0.20134252496636132
0.2072991132959913
0.21295992950510012
0.21830764847994183
0.22332601084608764
0.22799984972361073
0.23231511583454278
0.23625890088670382
0.23981945916359637
0.24298622725577154
0.2457498418748839
0.24810215569757935
0.25003625119235434
0.25154645238862033
0.2526283345533505
0.25327873174691123
0.2534957422359316
0.2532787317473686
0.25262833455425665
0.25154645238996304
0.25003625119411876
0.2481021556997475
0.24574984187743554
0.24298622725868307
0.23981945916684053
0.2362589008902507
0.2323151158383614
0.22799984972766849
0.22332601085035242
0.21830764848438114
0.21295992950968226
0.20729911330068557
0.20134252497113658
0.1951085270525496
0.18861648969299455
0.18188675946811536
0.17494062690130877
0.16780029279488656
0.16048883347876555
0.15303016508778336
0.1454490069831269
0.1377708444375522
0.1300218907081074
0.12222904862389107
0.11441987182003197
0.10662252575252165
0.09886574863179252
0.09117881241599404
0.0835914840077875
0.07613398680115192
0.06883696272717228
0.06173143495006405
0.05484877136678755
0.048220649065509734
0.04187901989990277
0.035856077337813236
0.030184224744213683
0.024896045259560334
0.020024273435729528
0.015601768792610023
0.011661491459186
0.008236480063572976
0.005359832036975303
0.0030646864969278076
0.0013842098754814614
0.000351584458203276

