# vtk DataFile Version 2.0
mesh vtk view
ASCII
DATASET UNSTRUCTURED_GRID
POINTS 101 double
0.0 0.0 0.0
1.0 0.0 0.0
0.009999999999981047 -7.271852779790343e-14 0.004425236279220677
0.01999999999996225 -2.0441416262560553e-13 0.017422430418798627
0.029999999999942892 -3.0929728003181827e-13 0.03857383782350259
0.03999999999992162 -3.893931749491582e-13 0.06746180791030368
0.04999999999989936 -4.467733987962805e-13 0.10366888963729148
0.059999999999878005 -4.834764979929589e-13 0.1467779757581577
0.06999999999986008 -5.016293314173471e-13 0.19637248371379493
0.07999999999984471 -5.032686327568415e-13 0.2520365710732506
0.08999999999982938 -4.907106147059187e-13 0.3133553834390062
0.09999999999981406 -4.660869696762769e-13 0.37991533273522693
0.10999999999979873 -4.3175498757638683e-13 0.45130440380254083
0.11999999999978242 -3.8990552153416543e-13 0.5271124872293712
0.12999999999976022 -3.430399591073663e-13 0.6069317363576855
0.13999999999973198 -2.9432720621596107e-13 0.6903569464107036
0.14999999999970268 -2.458832995376685e-13 0.7769859537012178
0.1599999999996736 -1.9936498012406064e-13 0.8664200528924743
0.16999999999964438 -1.5697766056498238e-13 0.9582644302990833
0.1799999999996152 -1.1971901891472204e-13 1.0521286112324983
0.18999999999958597 -8.690331392592155e-14 1.1476269194150404
0.19999999999955675 -5.858658733899678e-14 1.2443789465083146
0.20999999999952756 -3.442762384257692e-14 1.3420100298259232
0.21999999999949837 -1.597356402097105e-14 1.4401517363266274
0.22999999999946916 -4.858306738174448e-15 1.538442351012896
0.23999999999944002 -1.0652633706040908e-15 1.6365273678911079
0.24999999999941075 -6.817075690983464e-16 1.734059981683156
0.25999999999938156 -1.0625150336036894e-15 1.8307015785152736
0.2699999999993523 -5.870092648625408e-16 1.9261222238485511
0.27999999999932323 -5.978173262288839e-16 2.0200011459566682
0.28999999999929404 -4.261492034642096e-16 2.112027213299569
0.29999999999926485 -4.987637694381936e-16 2.2018994041878934
0.3099999999992356 -3.0837717232336705e-16 2.2893272671811093
0.3199999999992064 -1.5125429460363517e-16 2.3740313707129395
0.32999999999917734 7.422399790622085e-17 2.455743740490556
0.33999999999914815 3.9208799843674505e-16 2.5342082832691752
0.34999999999911885 5.38256297560781e-16 2.6091811956610287
0.35999999999908966 6.029521687313087e-16 2.6804313566971567
0.3699999999990604 7.125416942739179e-16 2.747740702921917
0.37999999999903133 9.317686640032614e-16 2.810904584863631
0.38999999999900214 1.3858194748091099e-15 2.8697321037901578
0.39999999999897295 1.0589933357959848e-15 2.9240464277252
0.4099999999989437 1.5601372512925557e-15 2.9736850857701174
0.4199999999989145 1.0302292175062065e-15 3.0185002398462575
0.42999999999888544 1.8456842186769928e-15 3.0583589330448393
0.43999999999885625 2.0959009126013215e-15 3.0931433138444926
0.44999999999882706 2.0587833304585302e-15 3.1227508355311833
0.45999999999879776 1.7672311222445654e-15 3.1470944302307107
0.4699999999987685 2.5727927377175292e-15 3.1661026570406476
0.47999999999873944 2.283284588301794e-15 3.1797198238259705
0.48999999999871025 2.16995080883467e-15 3.187906082320922
0.49999999999869194 2.173291996766295e-15 3.190637496258379
0.5099999999987075 2.6570720268196667e-15 3.18790608232732
0.5199999999987338 2.9710944740690943e-15 3.1797198238386506
0.5299999999987602 2.1485322252473476e-15 3.1661026570594344
0.5399999999987866 2.5188840159845936e-15 3.1470944302553865
0.5499999999988129 2.0811519442887006e-15 3.1227508355614852
0.5599999999988393 2.9891851373628278e-15 3.093143313880123
0.5699999999988657 2.9367695801843657e-15 3.0583589330854575
0.5799999999988922 2.5721942185024613e-15 3.018500239891484
0.5899999999989185 2.844627442012353e-15 2.973685085819545
0.5999999999989448 2.5174775065881558e-15 2.924046427778412
0.6099999999989713 2.4867069030826723e-15 2.8697321038467223
0.6199999999989976 2.6583391753492542e-15 2.8109045849231236
0.629999999999024 2.5209346729293873e-15 2.747740702983909
0.6399999999990503 2.4715680870881972e-15 2.68043135676123
0.6499999999990766 2.794661572735007e-15 2.609181195726757
0.6599999999991031 2.7596494374778822e-15 2.534208283336137
0.6699999999991294 2.4575917979242287e-15 2.45574374055834
0.6799999999991558 2.7233353876230475e-15 2.374031370781131
0.6899999999991823 2.7331483295983094e-15 2.2893272672493037
0.6999999999992086 2.524351019990083e-15 2.2018994042557067
0.709999999999235 2.6318662546662513e-15 2.1120272133666353
0.7199999999992615 2.711535046193092e-15 2.020001146022652
0.7299999999992879 2.5669998947197376e-15 1.9261222239131404
0.7399999999993142 2.5327504268832574e-15 1.830701578578187
0.7499999999993405 2.5427990140379818e-15 1.734059981744143
0.759999999999367 2.2664510478096147e-15 1.636527367949941
0.7699999999993933 1.690601944052214e-15 1.5384423510694112
0.7799999999994197 1.9245921951206452e-15 1.440151736380713
0.789999999999446 2.0179771769120843e-15 1.3420100298774953
0.7999999999994724 1.8221014815266978e-15 1.2443789465573085
0.8099999999994988 1.678435769049528e-15 1.1476269194614204
0.8199999999995252 1.7983693310369736e-15 1.0521286112762378
0.8299999999995517 1.5029982827338814e-15 0.9582644303401606
0.839999999999578 1.4419101658606555e-15 0.8664200529308878
0.8499999999996044 1.2913350524191685e-15 0.776985953736972
0.8599999999996307 1.1372100967309436e-15 0.6903569464437942
0.869999999999657 1.091792877303548e-15 0.6069317363881219
0.8799999999996835 9.738316451602977e-16 0.5271124872572103
0.8899999999997098 7.748363098277168e-16 0.4513044038278322
0.8999999999997362 6.16694218552854e-16 0.37991533275797906
0.9099999999997626 6.207453314717434e-16 0.3133553834592259
0.9199999999997889 4.412909217068244e-16 0.25203657109095207
0.9299999999998153 3.768002773234237e-16 0.19637248372899901
0.9399999999998417 2.7459339777993737e-16 0.14677797577088203
0.9499999999998682 2.0183345849008822e-16 0.10366888964756195
0.9599999999998945 1.2235616821487404e-16 0.06746180791817068
0.9699999999999208 6.999415900216907e-17 0.03857383782903175
0.9799999999999472 3.6573783981782124e-17 0.01742243042206304
0.9899999999999736 8.741547309750634e-18 0.004425236280296106

CELLS 100 300
2 0 2
2 2 3
2 3 4
2 4 5
2 5 6
2 6 7
2 7 8
2 8 9
2 9 10
2 10 11
2 11 12
2 12 13
2 13 14
2 14 15
2 15 16
2 16 17
2 17 18
2 18 19
2 19 20
2 20 21
2 21 22
2 22 23
2 23 24
2 24 25
2 25 26
2 26 27
2 27 28
2 28 29
2 29 30
2 30 31
2 31 32
2 32 33
2 33 34
2 34 35
2 35 36
2 36 37
2 37 38
2 38 39
2 39 40
2 40 41
2 41 42
2 42 43
2 43 44
2 44 45
2 45 46
2 46 47
2 47 48
2 48 49
2 49 50
2 50 51
2 51 52
2 52 53
2 53 54
2 54 55
2 55 56
2 56 57
2 57 58
2 58 59
2 59 60
2 60 61
2 61 62
2 62 63
2 63 64
2 64 65
2 65 66
2 66 67
2 67 68
2 68 69
2 69 70
2 70 71
2 71 72
2 72 73
2 73 74
2 74 75
2 75 76
2 76 77
2 77 78
2 78 79
2 79 80
2 80 81
2 81 82
2 82 83
2 83 84
2 84 85
2 85 86
2 86 87
2 87 88
2 88 89
2 89 90
2 90 91
2 91 92
2 92 93
2 93 94
2 94 95
2 95 96
2 96 97
2 97 98
2 98 99
2 99 100
2 100 1

CELL_TYPES 100
3
3
3
3
3
3
3
3
3
3
3
3
3
3
3
3
3
3
3
3
3
3
3
3
3
3
3
3
3
3
3
3
3
3
3
3
3
3
3
3
3
3
3
3
3
3
3
3
3
3
3
3
3
3
3
3
3
3
3
3
3
3
3
3
3
3
3
3
3
3
3
3
3
3
3
3
3
3
3
3
3
3
3
3
3
3
3
3
3
3
3
3
3
3
3
3
3
3
3
3

POINT_DATA 101
SCALARS DISPL float 1
LOOKUP_TABLE default
0.0
0.0
0.0003515844581174384
0.0013842098752206826
0.0030646864964856725
0.005359832036345838
0.00823648006275103
0.011661491458167847
0.015601768791394096
0.020024273434315117
0.024896045257946586
0.030184224742400498
0.03585607733580124
0.04187901989769255
0.04822064906309868
0.05484877136417258
0.06173143494724591
0.06883696272415292
0.07613398679793251
0.08359148400436954
0.09117881241238036
0.09886574862798582
0.10662252574852522
0.11441987181585148
0.12222904861953336
0.13002189070358114
0.13777084443287071
0.14544900697830837
0.153030165082848
0.16048883347373544
0.16780029278978592
0.17494062689616344
0.1818867594629535
0.1886164896878459
0.19510852704744525
0.2013425249661082
0.20729911329576414
0.21295992950489973
0.2183076484797697
0.22332601084594425
0.2279998497234965
0.23231511583445766
0.2362589008866476
0.23981945916356837
0.2429862272557708
0.2457498418749094
0.24810215569762997
0.25003625119242945
0.2515464523887195
0.2526283345534738
0.253278731747059
0.25349574223610444
0.2532787317475673
0.2526283345544812
0.25154645239021206
0.25003625119438994
0.24810215570003746
0.24574984187774024
0.2429862272589979
0.2398194591671616
0.2362589008905746
0.23231511583868536
0.22799984972799053
0.22332601085067094
0.21830764848469497
0.21295992950999035
0.20729911330098624
0.20134252497142827
0.1951085270528307
0.18861648969326372
0.18188675946837152
0.1749406269015512
0.16780029279511435
0.16048883347897783
0.15303016508797962
0.14544900698330684
0.13777084443771614
0.13002189070825543
0.12222904862402349
0.11441987182014857
0.10662252575262261
0.09886574863187837
0.09117881241606524
0.08359148400784462
0.07613398680119611
0.06883696272720487
0.061731434950086574
0.05484877136680163
0.04822064906551686
0.041879019899904356
0.03585607733781064
0.030184224744208153
0.02489604525955304
0.020024273435721492
0.015601768792602059
0.011661491459178793
0.008236480063567017
0.00535983203697087
0.0030646864969249635
0.0013842098754800398
0.0003515844582028811

