# vtk DataFile Version 2.0
mesh vtk view
ASCII
DATASET UNSTRUCTURED_GRID
POINTS 101 double
0.0 0.0 0.0
1.0 0.0 0.0
0.009999999999981052 -1.1481872810195283e-14 0.0006987215177716861
0.019999999999962256 -3.2275920414569306e-14 0.0027509100661261
0.029999999999942906 -4.8836412636602905e-14 0.006090605972131991
0.03999999999992164 -6.148313288670922e-14 0.010651864406890059
0.04999999999989938 -7.054316823099168e-14 0.016368772047993398
0.05999999999987804 -7.633839441994092e-14 0.023175469856551226
0.06999999999986012 -7.920463127642326e-14 0.03100618163902026
0.07999999999984475 -7.946346833002764e-14 0.03979524806419748
0.08999999999982942 -7.748062337461877e-14 0.04947716580615889
0.09999999999981411 -7.359267942257006e-14 0.059986631484509535
0.10999999999979879 -6.817184014364005e-14 0.07125859007408542
0.11999999999978249 -6.156402971592087e-14 0.08322828745726918
0.12999999999976028 -5.416420406958417e-14 0.0958313267933188
0.13999999999973206 -4.647271677094124e-14 0.10900372838063745
0.14999999999970276 -3.8823678874368725e-14 0.12268199268966601
0.15999999999967368 -3.1478681072220114e-14 0.1368031662461802
0.16999999999964446 -2.4785946404997227e-14 0.1513049100472237
0.17999999999961527 -1.8903002986535065e-14 0.16612557019460508
0.18999999999958608 -1.372157588304025e-14 0.18120425043395383
0.19999999999955687 -9.250513790367916e-15 0.1964808862907866
0.20999999999952768 -5.435940606722674e-15 0.21189632049883006
0.21999999999949849 -2.5221416875217454e-15 0.2273923794199939
0.22999999999946927 -7.671010639222815e-16 0.24291195015993103
0.23999999999944016 -1.6819947956906703e-16 0.25839905808806973
0.24999999999941086 -1.0763803722605474e-16 0.27379894447628783
0.2599999999993817 -1.6776553162163524e-16 0.2890581439760959
0.2699999999993525 -9.268567339934859e-17 0.30412456166029767
0.2799999999993234 -9.439220940456065e-17 0.3189475493615793
0.2899999999992942 -6.728671633645417e-17 0.3334779810473005
0.299999999999265 -7.875217412182009e-17 0.3476683269770359
0.3099999999992358 -4.86911324721106e-17 0.36147272639701744
0.3199999999992066 -2.3882257042679244e-17 0.37484705853362216
0.3299999999991775 1.1719578616771719e-17 0.3877490116564037
0.3399999999991483 6.190863133211766e-17 0.4001381499898699
0.34999999999911896 8.498783645696546e-17 0.41197597826226784
0.3599999999990898 9.520297401020666e-17 0.4232260036890249
0.3699999999990606 1.125065833064081e-16 0.43385379519819756
0.3799999999990315 1.47121368000515e-16 0.4438270397153103
0.3899999999990023 2.18813601285649e-16 0.4531155953352882
0.39999999999897307 1.6720947407305028e-16 0.4616915412197686
0.4099999999989439 2.4633746073040364e-16 0.4695292240689661
0.4199999999989147 1.6266777118519056e-16 0.47660530102835663
0.4299999999988856 2.9142382400163057e-16 0.4828987789018169
0.4399999999988564 3.3093172304231404e-16 0.4883910495543938
0.4499999999988272 3.250710521776628e-16 0.4930659213996607
0.4599999999987979 2.790364929859841e-16 0.49690964687853345
0.4699999999987687 4.06230432271189e-16 0.4999109458485235
0.4799999999987396 3.605186192055466e-16 0.5020610248146271
0.4899999999987104 3.426238119212638e-16 0.5033535919454089
0.4999999999986921 3.4315136791046776e-16 0.5037848678302705
0.5099999999987076 4.195376884452107e-16 0.5033535919464192
0.5199999999987339 4.69120180116173e-16 0.5020610248166293
0.5299999999987604 3.3924193030221287e-16 0.4999109458514898
0.5399999999987867 3.9771852883967283e-16 0.4969096468824296
0.549999999998813 3.286029385719002e-16 0.4930659214044452
0.5599999999988394 4.719766006362362e-16 0.48839104956001966
0.5699999999988659 4.637004600291106e-16 0.48289877890823035
0.5799999999988923 4.061359292372309e-16 0.47660530103549764
0.5899999999989186 4.491517013703717e-16 0.46952922407677045
0.5999999999989449 3.974964484086563e-16 0.4616915412281705
0.6099999999989714 3.9263793206568527e-16 0.45311559534421947
0.6199999999989977 4.1973776452882975e-16 0.4438270397247039
0.6299999999990241 3.9804231677832444e-16 0.43385379520798584
0.6399999999990504 3.9024759269813654e-16 0.42322600369914176
0.6499999999990768 4.412623535897381e-16 0.411975978272646
0.6599999999991032 4.357341217070342e-16 0.4001381500004428
0.6699999999991295 3.8804081019856254e-16 0.38774901166710646
0.679999999999156 4.3000032436153397e-16 0.37484705854438927
0.6899999999991824 4.3154973625236484e-16 0.36147272640778494
0.6999999999992087 3.9858173999843435e-16 0.3476683269877433
0.7099999999992351 4.1555782968414506e-16 0.33347798105788995
0.7199999999992615 4.281371125568042e-16 0.31894754937199776
0.7299999999992879 4.05315772850485e-16 0.30412456167049595
0.7399999999993142 3.999079621394618e-16 0.28905814398602964
0.7499999999993405 4.01494581163892e-16 0.2737989444859174
0.759999999999367 3.57860691759413e-16 0.2583990580973592
0.7699999999993933 2.6693714906087596e-16 0.2429119501688545
0.7799999999994197 3.038829781769441e-16 0.22739237942853371
0.789999999999446 3.1862797530190814e-16 0.21189632050697302
0.7999999999994724 2.8770023392526816e-16 0.19648088629852248
0.8099999999994988 2.650161740604519e-16 0.18120425044127694
0.8199999999995252 2.8395305226899594e-16 0.16612557020151128
0.8299999999995517 2.373155183264024e-16 0.15130491005370963
0.839999999999578 2.276700261885246e-16 0.13680316625224548
0.8499999999996044 2.0389500827671088e-16 0.12268199269531141
0.8599999999996307 1.7955948895751747e-16 0.10900372838586228
0.869999999999657 1.723883490479287e-16 0.09583132679812456
0.8799999999996835 1.537628913410997e-16 0.08322828746166482
0.8899999999997098 1.2234257523595533e-16 0.0712585900780788
0.8999999999997362 9.737277135045067e-17 0.05998663148810198
0.9099999999997626 9.801242075869637e-17 0.04947716580935148
0.9199999999997889 6.967751395370915e-17 0.039795248066992445
0.9299999999998153 5.949478063001429e-17 0.031006181641420907
0.9399999999998417 4.335685228104276e-17 0.02317546985856033
0.9499999999998682 3.186844081422447e-17 0.016368772049615052
0.9599999999998945 1.931939498129591e-17 0.010651864408132216
0.9699999999999208 1.1051709316131963e-17 0.006090605973005016
0.9799999999999472 5.774807997123496e-18 0.0027509100666415335
0.9899999999999736 1.3802443120658902e-18 0.0006987215179414906

CELLS 100 300
2 0 2
2 2 3
2 3 4
2 4 5
2 5 6
2 6 7
2 7 8
2 8 9
2 9 10
2 10 11
2 11 12
2 12 13
2 13 14
2 14 15
2 15 16
2 16 17
2 17 18
2 18 19
2 19 20
2 20 21
2 21 22
2 22 23
2 23 24
2 24 25
2 25 26
2 26 27
2 27 28
2 28 29
2 29 30
2 30 31
2 31 32
2 32 33
2 33 34
2 34 35
2 35 36
2 36 37
2 37 38
2 38 39
2 39 40
2 40 41
2 41 42
2 42 43
2 43 44
2 44 45
2 45 46
2 46 47
2 47 48
2 48 49
2 49 50
2 50 51
2 51 52
2 52 53
2 53 54
2 54 55
2 55 56
2 56 57
2 57 58
2 58 59
2 59 60
2 60 61
2 61 62
2 62 63
2 63 64
2 64 65
2 65 66
2 66 67
2 67 68
2 68 69
2 69 70
2 70 71
2 71 72
2 72 73
2 73 74
2 74 75
2 75 76
2 76 77
2 77 78
2 78 79
2 79 80
2 80 81
2 81 82
2 82 83
2 83 84
2 84 85
2 85 86
2 86 87
2 87 88
2 88 89
2 89 90
2 90 91
2 91 92
2 92 93
2 93 94
2 94 95
2 95 96
2 96 97
2 97 98
2 98 99
2 99 100
2 100 1

CELL_TYPES 100
3
3
3
3
3
3
3
3
3
3
3
3
3
3
3
3
3
3
3
3
3
3
3
3
3
3
3
3
3
3
3
3
3
3
3
3
3
3
3
3
3
3
3
3
3
3
3
3
3
3
3
3
3
3
3
3
3
3
3
3
3
3
3
3
3
3
3
3
3
3
3
3
3
3
3
3
3
3
3
3
3
3
3
3
3
3
3
3
3
3
3
3
3
3
3
3
3
3
3
3

POINT_DATA 101
SCALARS DISPL float 1
LOOKUP_TABLE default
0.0
0.0
0.0003515844581174384
0.0013842098752206826
0.0030646864964856725
0.005359832036345838
0.00823648006275103
0.011661491458167847
0.015601768791394096
0.020024273434315117
0.024896045257946586
0.030184224742400498
0.03585607733580124
0.04187901989769255
0.04822064906309868
0.05484877136417258
0.06173143494724591
0.06883696272415292
0.07613398679793251
0.08359148400436954
0.09117881241238036
0.09886574862798582
0.10662252574852522
0.11441987181585148
0.12222904861953336
0.13002189070358114
0.13777084443287071
0.14544900697830837
0.153030165082848
0.16048883347373544
0.16780029278978592
0.17494062689616344
0.1818867594629535
0.1886164896878459
0.19510852704744525
0.2013425249661082
0.20729911329576414
0.21295992950489973
0.2183076484797697
0.22332601084594425
0.2279998497234965
0.23231511583445766
0.2362589008866476
0.23981945916356837
0.2429862272557708
0.2457498418749094
0.24810215569762997
0.25003625119242945
0.2515464523887195
0.2526283345534738
0.253278731747059
0.25349574223610444
0.2532787317475673
0.2526283345544812
0.25154645239021206
0.25003625119438994
0.24810215570003746
0.24574984187774024
0.2429862272589979
0.2398194591671616
0.2362589008905746
0.23231511583868536
0.22799984972799053
0.22332601085067094
0.21830764848469497
0.21295992950999035
0.20729911330098624
0.20134252497142827
0.1951085270528307
0.18861648969326372
0.18188675946837152
0.1749406269015512
0.16780029279511435
0.16048883347897783
0.15303016508797962
0.14544900698330684
0.13777084443771614
0.13002189070825543
0.12222904862402349
0.11441987182014857
0.10662252575262261
0.09886574863187837
0.09117881241606524
0.08359148400784462
0.07613398680119611
0.06883696272720487
0.061731434950086574
0.05484877136680163
0.04822064906551686
0.041879019899904356
0.03585607733781064
0.030184224744208153
0.02489604525955304
0.020024273435721492
0.015601768792602059
0.011661491459178793
0.008236480063567017
0.00535983203697087
0.0030646864969249635
0.0013842098754800398
0.0003515844582028811

