# vtk DataFile Version 2.0
mesh vtk view
ASCII
DATASET UNSTRUCTURED_GRID
POINTS 101 double
0.0 0.0 0.0
1.0 0.0 0.0
0.00999999999998105 -2.6791036557122328e-14 0.0016303502081339342
0.019999999999962256 -7.531048096732838e-14 0.0064187901542942325
0.029999999999942902 -1.1395162948540678e-13 0.014211413934974644
0.03999999999992164 -1.4346064340232148e-13 0.02485435028274347
0.049999999999899375 -1.6460072587231392e-13 0.03819380144531793
0.05999999999987803 -1.7812292031319546e-13 0.05407609633195286
0.06999999999986012 -1.8481080631165425e-13 0.07234775715771394
0.07999999999984474 -1.8541475943673114e-13 0.09285557881646078
0.08999999999982941 -1.807881212074438e-13 0.11544672021437075
0.0999999999998141 -1.7171625198599682e-13 0.13996880679718893
0.10999999999979877 -1.5906762700182678e-13 0.1662700435061993
0.11999999999978248 -1.4364940267048203e-13 0.19419933740029474
0.12999999999976028 -1.2638314282902972e-13 0.2236064291844105
0.13999999999973206 -1.0843633913219622e-13 0.254342032888154
0.14999999999970276 -9.058858404019369e-14 0.286257982942554
0.15999999999967365 -7.345025583518026e-14 0.31920738790775377
0.16999999999964446 -5.783387494499353e-14 0.3530447901101887
0.17999999999961525 -4.410700696858182e-14 0.3876263304540785
0.18999999999958606 -3.2017010393760584e-14 0.42280991767922554
0.19999999999955684 -2.1584532177525134e-14 0.4584554013451687
0.20999999999952765 -1.2683861415686239e-14 0.4944247478306035
0.21999999999949846 -5.884997270884073e-15 0.5305822186466524
0.22999999999946924 -1.7899024824853233e-15 0.5667945503731724
0.23999999999944013 -3.9246545232782305e-16 0.6029311355388294
0.24999999999941083 -2.5115542019412773e-16 0.638864203778005
0.25999999999938167 -3.9145290711714884e-16 0.6744690026108905
0.2699999999993524 -2.1626657126514668e-16 0.7096239772073611
0.27999999999932335 -2.2024848861064151e-16 0.7442109485103517
0.28999999999929416 -1.5700233811839305e-16 0.7781152891103678
0.29999999999926497 -1.837550729509135e-16 0.8112260962797504
0.3099999999992357 -1.1361264243492472e-16 0.8434363615930406
0.31999999999920653 -5.572526643291824e-17 0.8746431365784516
0.32999999999917745 2.734568343913401e-17 0.9047476938649419
0.33999999999914826 1.4445347310827455e-16 0.9336556833096964
0.34999999999911896 1.983049517329194e-16 0.9612772826119583
0.35999999999908977 2.221402726904822e-16 0.9875273419410581
0.3699999999990605 2.625153610482856e-16 1.0123255221291276
0.37999999999903145 3.4328319200120167e-16 1.0355964260023907
0.38999999999900226 5.105650696665143e-16 1.0572697224490057
0.39999999999897307 3.9015543950378395e-16 1.0772802628461267
0.4099999999989438 5.747874083709418e-16 1.0955681894942542
0.41999999999891463 3.7955813276544463e-16 1.112079035732832
0.42999999999888555 6.799889226704713e-16 1.1267638174375727
0.43999999999885636 7.72174020432066e-16 1.1395791156269188
0.44999999999882717 7.584991217478798e-16 1.1504871499325415
0.45999999999879787 6.510851503006295e-16 1.159455842716578
0.4699999999987686 9.478710086327743e-16 1.1664588736465549
0.47999999999873955 8.412101114796087e-16 1.1714757245674632
0.48999999999871036 7.994555611496155e-16 1.1744917145392875
0.49999999999869205 8.006865251244248e-16 1.175498024937298
0.5099999999987075 9.789212730388248e-16 1.1744917145416445
0.5199999999987338 1.0946137536044035e-15 1.1714757245721348
0.5299999999987604 7.915645040384968e-16 1.1664588736534762
0.5399999999987867 9.280099006259032e-16 1.1594558427256692
0.549999999998813 7.667401900011005e-16 1.1504871499437055
0.5599999999988394 1.1012787348178842e-15 1.1395791156400459
0.5699999999988659 1.0819677400679246e-15 1.1267638174525374
0.5799999999988923 9.476505015535387e-16 1.1120790357494945
0.5899999999989186 1.0480206365308671e-15 1.0955681895124643
0.5999999999989449 9.274917129535312e-16 1.0772802628657312
0.6099999999989714 9.161551748199322e-16 1.0572697224698453
0.6199999999989977 9.79388117233936e-16 1.0355964260243091
0.6299999999990241 9.287654058160904e-16 1.012325522151967
0.6399999999990504 9.105777162956519e-16 0.9875273419646641
0.6499999999990768 1.0296121583760555e-15 0.961277282636174
0.6599999999991032 1.0167129506497464e-15 0.9336556833343664
0.6699999999991295 9.054285571299793e-16 0.904747693889915
0.679999999999156 1.0033340901769126e-15 0.874643136603575
0.6899999999991824 1.0069493845888513e-15 0.8434363616181648
0.6999999999992087 9.300240599963467e-16 0.8112260963047343
0.7099999999992351 9.696349359296718e-16 0.7781152891350764
0.7199999999992615 9.989865959658765e-16 0.7442109485346614
0.7299999999992879 9.457368033177983e-16 0.7096239772311572
0.7399999999993142 9.33118578325411e-16 0.6744690026340692
0.7499999999993405 9.368206893824146e-16 0.6388642038004739
0.759999999999367 8.350082807719636e-16 0.6029311355605048
0.7699999999993933 6.228533478087106e-16 0.5667945503939938
0.7799999999994197 7.090602824128696e-16 0.5305822186665786
0.789999999999446 7.434652757044523e-16 0.49442474784960366
0.7999999999994724 6.7130054582562575e-16 0.4584554013632191
0.8099999999994988 6.183710728077211e-16 0.4228099176963129
0.8199999999995252 6.625571219609906e-16 0.38762633047019296
0.8299999999995517 5.537362094282723e-16 0.35304479012532247
0.839999999999578 5.312300611065574e-16 0.3192073879219061
0.8499999999996044 4.757550193123254e-16 0.28625798295572663
0.8599999999996307 4.1897214090087407e-16 0.2543420329003453
0.869999999999657 4.0223948111183362e-16 0.22360642919562396
0.8799999999996835 3.5878007979589927e-16 0.1941993374105512
0.8899999999997098 2.8546600888389574e-16 0.1662700435155172
0.8999999999997362 2.2720313315105154e-16 0.13996880680557128
0.9099999999997626 2.286956484369582e-16 0.1154467202218201
0.9199999999997889 1.6258086589198801e-16 0.09285557882298236
0.9299999999998153 1.3882115480336668e-16 0.07234775716331544
0.9399999999998417 1.0116598865576643e-16 0.05407609633664077
0.9499999999998682 7.435969523319042e-17 0.03819380144910178
0.9599999999998945 4.5078588289690453e-17 0.024854350285641837
0.9699999999999208 2.5787321737641244e-17 0.014211413937011703
0.9799999999999472 1.3474551993288157e-17 0.006418790155496911
0.9899999999999736 3.220570061487077e-18 0.0016303502085301446

CELLS 100 300
2 0 2
2 2 3
2 3 4
2 4 5
2 5 6
2 6 7
2 7 8
2 8 9
2 9 10
2 10 11
2 11 12
2 12 13
2 13 14
2 14 15
2 15 16
2 16 17
2 17 18
2 18 19
2 19 20
2 20 21
2 21 22
2 22 23
2 23 24
2 24 25
2 25 26
2 26 27
2 27 28
2 28 29
2 29 30
2 30 31
2 31 32
2 32 33
2 33 34
2 34 35
2 35 36
2 36 37
2 37 38
2 38 39
2 39 40
2 40 41
2 41 42
2 42 43
2 43 44
2 44 45
2 45 46
2 46 47
2 47 48
2 48 49
2 49 50
2 50 51
2 51 52
2 52 53
2 53 54
2 54 55
2 55 56
2 56 57
2 57 58
2 58 59
2 59 60
2 60 61
2 61 62
2 62 63
2 63 64
2 64 65
2 65 66
2 66 67
2 67 68
2 68 69
2 69 70
2 70 71
2 71 72
2 72 73
2 73 74
2 74 75
2 75 76
2 76 77
2 77 78
2 78 79
2 79 80
2 80 81
2 81 82
2 82 83
2 83 84
2 84 85
2 85 86
2 86 87
2 87 88
2 88 89
2 89 90
2 90 91
2 91 92
2 92 93
2 93 94
2 94 95
2 95 96
2 96 97
2 97 98
2 98 99
2 99 100
2 100 1

CELL_TYPES 100
3
3
3
3
3
3
3
3
3
3
3
3
3
3
3
3
3
3
3
3
3
3
3
3
3
3
3
3
3
3
3
3
3
3
3
3
3
3
3
3
3
3
3
3
3
3
3
3
3
3
3
3
3
3
3
3
3
3
3
3
3
3
3
3
3
3
3
3
3
3
3
3
3
3
3
3
3
3
3
3
3
3
3
3
3
3
3
3
3
3
3
3
3
3
3
3
3
3
3
3

POINT_DATA 101
SCALARS DISPL float 1
LOOKUP_TABLE default
0.0
0.0
0.0003515844581174384
0.0013842098752206826
0.0030646864964856725
0.005359832036345838
0.00823648006275103
0.011661491458167847
0.015601768791394096
0.020024273434315117
0.024896045257946586
0.030184224742400498
0.03585607733580124
0.04187901989769255
0.04822064906309868
0.05484877136417258
0.06173143494724591
0.06883696272415292
0.07613398679793251
0.08359148400436954
0.09117881241238036
0.09886574862798582
0.10662252574852522
0.11441987181585148
0.12222904861953336
0.13002189070358114
0.13777084443287071
0.14544900697830837
0.153030165082848
0.16048883347373544
0.16780029278978592
0.17494062689616344
0.1818867594629535
0.1886164896878459
0.19510852704744525
0.2013425249661082
0.20729911329576414
0.21295992950489973
0.2183076484797697
0.22332601084594425
0.2279998497234965
0.23231511583445766
0.2362589008866476
0.23981945916356837
0.2429862272557708
0.2457498418749094
0.24810215569762997
0.25003625119242945
0.2515464523887195
0.2526283345534738
0.253278731747059
0.25349574223610444
0.2532787317475673
0.2526283345544812
0.25154645239021206
0.25003625119438994
0.24810215570003746
0.24574984187774024
0.2429862272589979
0.2398194591671616
0.2362589008905746
0.23231511583868536
0.22799984972799053
0.22332601085067094
0.21830764848469497
0.21295992950999035
0.20729911330098624
0.20134252497142827
0.1951085270528307
0.18861648969326372
0.18188675946837152
0.1749406269015512
0.16780029279511435
0.16048883347897783
0.15303016508797962
0.14544900698330684
0.13777084443771614
0.13002189070825543
0.12222904862402349
0.11441987182014857
0.10662252575262261
0.09886574863187837
0.09117881241606524
0.08359148400784462
0.07613398680119611
0.06883696272720487
0.061731434950086574
0.05484877136680163
0.04822064906551686
0.041879019899904356
0.03585607733781064
0.030184224744208153
0.02489604525955304
0.020024273435721492
0.015601768792602059
0.011661491459178793
0.008236480063567017
0.00535983203697087
0.0030646864969249635
0.0013842098754800398
0.0003515844582028811

