# vtk DataFile Version 2.0
mesh vtk view
ASCII
DATASET UNSTRUCTURED_GRID
POINTS 101 double
0.0 0.0 0.0
1.0 0.0 0.0
0.009999999999981708 -0.0034936075898540017 -8.409145005914454e-14
0.019999999999963703 -0.01375455033348895 -2.3916995553469103e-13
0.029999999999945185 -0.030453029865129842 -3.6903150603127924e-13
0.039999999999924755 -0.053259322040295355 -4.764450482953952e-13
0.04999999999990331 -0.08184386024696619 -5.647809376211793e-13
0.05999999999988291 -0.11587734929070348 -6.383279580525116e-13
0.06999999999986609 -0.15503090820380616 -6.999679092581954e-13
0.07999999999985179 -0.19897624033027408 -7.514565996748285e-13
0.08999999999983742 -0.2473858290405027 -7.966341680754001e-13
0.099999999999823 -0.29993315743253124 -8.368579014145885e-13
0.10999999999980864 -0.356292950380552 -8.712202661791888e-13
0.11999999999979322 -0.4161414372964962 -9.052999691409633e-13
0.129999999999772 -0.4791566339766701 -9.293190884179964e-13
0.13999999999974458 -0.5450186419131073 -9.27277730390054e-13
0.14999999999971608 -0.613409963458023 -8.982189062334813e-13
0.1599999999996877 -0.6840158312403072 -8.404010330986632e-13
0.16999999999965912 -0.7565245502452007 -7.596869520261942e-13
0.17999999999963046 -0.830627850981771 -6.507849136181816e-13
0.18999999999960185 -0.906021252178195 -5.231388467092102e-13
0.19999999999957332 -0.982404431462073 -3.897026587314537e-13
0.20999999999954466 -1.0594816025020577 -2.5212369592758275e-13
0.21999999999951594 -1.1369618971077022 -1.465745506267655e-13
0.2299999999994871 -1.2145597508072485 -1.013011468050959e-13
0.23999999999945826 -1.2919952904478347 -9.078353736310748e-14
0.2499999999994293 -1.3689947223888395 -8.117783549881948e-14
0.25999999999940043 -1.4452907198877925 -7.173876366222789e-14
0.26999999999937146 -1.5206228083087134 -6.119346088523174e-14
0.2799999999993427 -1.5947377468150326 -5.048205072506858e-14
0.2899999999993139 -1.667389905243547 -3.9366806489152416e-14
0.2999999999992851 -1.7383416348921312 -2.815609162677362e-14
0.3099999999992563 -1.807363631991943 -1.6611041945437994e-14
0.31999999999922724 -1.874235292674867 -4.172321996906957e-15
0.3299999999991982 -1.938745058288665 7.224945597693364e-15
0.3399999999991691 -2.0006907499558726 1.8697880882009195e-14
0.3499999999991398 -2.0598798913177228 2.915771539780518e-14
0.3599999999991105 -2.1161300184513547 3.944219686868778e-14
0.3699999999990811 -2.169268975997044 4.874388731259701e-14
0.3799999999990519 -2.2191351985824217 5.785452813692102e-14
0.3899999999990225 -2.2655779766821147 6.538793140536496e-14
0.3999999999989931 -2.308457706104313 7.256711848829733e-14
0.4099999999989637 -2.347646120350092 7.845897313797535e-14
0.41999999999893434 -2.383026505146835 8.428363426775291e-14
0.4299999999989052 -2.414493894513929 8.829607794182256e-14
0.43999999999887596 -2.4419552477766073 9.164297506130515e-14
0.4499999999988466 -2.4653296070027393 9.524873458609158e-14
0.45999999999881713 -2.484548234396898 9.669818897220506e-14
0.46999999999878767 -2.49955472924664 9.911416083765069e-14
0.4799999999987585 -2.510305124076939 9.910252579618431e-14
0.4899999999987291 -2.516767959730618 9.929110761086229e-14
0.49999999999871053 -2.518924339154681 9.864265185014923e-14
0.5099999999987257 -2.5167679597351627 9.754012687911577e-14
0.5199999999987517 -2.5103051240859435 9.524561800929142e-14
0.5299999999987778 -2.4995547292599816 9.22950273580157e-14
0.5399999999988039 -2.4845482344144307 8.828058269451141e-14
0.5499999999988296 -2.4653296070242834 8.36811899773497e-14
0.5599999999988556 -2.441955247801962 7.940411028446917e-14
0.5699999999988816 -2.41449389454286 7.325499204928505e-14
0.5799999999989076 -2.3830265051790716 6.878340745264318e-14
0.5899999999989335 -2.3476461203853365 6.328533836832202e-14
0.5999999999989594 -2.3084577061422578 5.844593462817804e-14
0.6099999999989855 -2.2655779767224358 5.427070539046877e-14
0.6199999999990115 -2.2191351986248 5.0888138037155575e-14
0.6299999999990376 -2.169268976041156 4.652961431051621e-14
0.6399999999990633 -2.1161300184968863 4.2484924053832666e-14
0.6499999999990891 -2.0598798913643686 3.671225713782859e-14
0.6599999999991147 -2.0006907500033235 3.2608815988035774e-14
0.6699999999991404 -1.938745058336623 2.741079025327372e-14
0.6799999999991659 -1.8742352927230261 2.2771943256840578e-14
0.6899999999991915 -1.80736363204 1.8012381415212426e-14
0.6999999999992169 -1.7383416349397898 1.471888462304723e-14
0.7099999999992423 -1.6673899052905263 1.0244424556900888e-14
0.7199999999992677 -1.5947377468610742 5.898132556389415e-15
0.7299999999992931 -1.5206228083535758 1.7150672872312919e-15
0.7399999999993186 -1.4452907199312555 -2.5203323578556702e-15
0.7499999999993444 -1.3689947224307004 -6.610351328968398e-15
0.7599999999993702 -1.2919952904879133 -1.0411844439675678e-14
0.7699999999993957 -1.2145597508453898 -1.4313024787913303e-14
0.7799999999994215 -1.1369618971437876 -1.8208971225144507e-14
0.789999999999447 -1.0594816025359841 -2.01877544867154e-14
0.7999999999994727 -0.9824044314937272 -2.3134148893012396e-14
0.8099999999994986 -0.9060212522074923 -2.5510280202347316e-14
0.8199999999995246 -0.8306278510086528 -2.6973180369172915e-14
0.8299999999995507 -0.7565245502696246 -2.8225337801564958e-14
0.8399999999995769 -0.6840158312622739 -2.8530658516261097e-14
0.8499999999996032 -0.613409963477562 -2.8429390499782834e-14
0.8599999999996293 -0.5450186419302633 -2.8219869969970637e-14
0.8699999999996555 -0.4791566339915118 -2.6979596965240497e-14
0.8799999999996818 -0.4161414373091419 -2.5645752127414858e-14
0.889999999999708 -0.3562929503911335 -2.370694715207175e-14
0.8999999999997343 -0.2999331574411657 -2.1426011252694588e-14
0.9099999999997606 -0.24738582904732542 -1.8768040749386695e-14
0.9199999999997868 -0.19897624033544065 -1.6234593240982306e-14
0.9299999999998131 -0.15503090820749424 -1.330452533675667e-14
0.9399999999998396 -0.11587734929310539 -1.0423004575991929e-14
0.9499999999998662 -0.08184386024829843 -7.700068034524905e-15
0.9599999999998927 -0.053259322040811824 -5.277011067979351e-15
0.9699999999999193 -0.030453029865114344 -3.1628492066494173e-15
0.979999999999946 -0.013754550333249347 -1.4899723936331184e-15
0.9899999999999729 -0.003493607589718376 -3.920599607619662e-16

CELLS 100 300
2 0 2
2 2 3
2 3 4
2 4 5
2 5 6
2 6 7
2 7 8
2 8 9
2 9 10
2 10 11
2 11 12
2 12 13
2 13 14
2 14 15
2 15 16
2 16 17
2 17 18
2 18 19
2 19 20
2 20 21
2 21 22
2 22 23
2 23 24
2 24 25
2 25 26
2 26 27
2 27 28
2 28 29
2 29 30
2 30 31
2 31 32
2 32 33
2 33 34
2 34 35
2 35 36
2 36 37
2 37 38
2 38 39
2 39 40
2 40 41
2 41 42
2 42 43
2 43 44
2 44 45
2 45 46
2 46 47
2 47 48
2 48 49
2 49 50
2 50 51
2 51 52
2 52 53
2 53 54
2 54 55
2 55 56
2 56 57
2 57 58
2 58 59
2 59 60
2 60 61
2 61 62
2 62 63
2 63 64
2 64 65
2 65 66
2 66 67
2 67 68
2 68 69
2 69 70
2 70 71
2 71 72
2 72 73
2 73 74
2 74 75
2 75 76
2 76 77
2 77 78
2 78 79
2 79 80
2 80 81
2 81 82
2 82 83
2 83 84
2 84 85
2 85 86
2 86 87
2 87 88
2 88 89
2 89 90
2 90 91
2 91 92
2 92 93
2 93 94
2 94 95
2 95 96
2 96 97
2 97 98
2 98 99
2 99 100
2 100 1

CELL_TYPES 100
3
3
3
3
3
3
3
3
3
3
3
3
3
3
3
3
3
3
3
3
3
3
3
3
3
3
3
3
3
3
3
3
3
3
3
3
3
3
3
3
3
3
3
3
3
3
3
3
3
3
3
3
3
3
3
3
3
3
3
3
3
3
3
3
3
3
3
3
3
3
3
3
3
3
3
3
3
3
3
3
3
3
3
3
3
3
3
3
3
3
3
3
3
3
3
3
3
3
3
3

POINT_DATA 101
SCALARS DISPL float 1
LOOKUP_TABLE default
0.0
0.0
0.0003515844582169249
0.0013842098755055742
0.003064686496929367
0.005359832036923327
0.008236480063438904
0.01166149145894428
0.015601768792238868
0.020024273435209582
0.02489604525887372
0.03018422474334474
0.035856077336748345
0.04187901989863015
0.04822064906401611
0.054848771365061035
0.061731434948097706
0.06883696272496163
0.07613398679869399
0.08359148400508222
0.09117881241304567
0.09886574862860695
0.1066225257491074
0.11441987181640047
0.12222904862005267
0.13002189070407402
0.13777084443333945
0.14544900697875293
0.15303016508326855
0.1604888334741321
0.16780029279015873
0.17494062689651257
0.1818867594632791
0.18861648968814798
0.19510852704772327
0.20134252496636132
0.2072991132959913
0.21295992950510012
0.21830764847994183
0.22332601084608764
0.22799984972361073
0.23231511583454278
0.23625890088670382
0.23981945916359637
0.24298622725577154
0.2457498418748839
0.24810215569757935
0.25003625119235434
0.25154645238862033
0.2526283345533505
0.25327873174691123
0.2534957422359316
0.2532787317473686
0.25262833455425665
0.25154645238996304
0.25003625119411876
0.2481021556997475
0.24574984187743554
0.24298622725868307
0.23981945916684053
0.2362589008902507
0.2323151158383614
0.22799984972766849
0.22332601085035242
0.21830764848438114
0.21295992950968226
0.20729911330068557
0.20134252497113658
0.1951085270525496
0.18861648969299455
0.18188675946811536
0.17494062690130877
0.16780029279488656
0.16048883347876555
0.15303016508778336
0.1454490069831269
0.1377708444375522
0.1300218907081074
0.12222904862389107
0.11441987182003197
0.10662252575252165
0.09886574863179252
0.09117881241599404
0.0835914840077875
0.07613398680115192
0.06883696272717228
0.06173143495006405
0.05484877136678755
0.048220649065509734
0.04187901989990277
0.035856077337813236
0.030184224744213683
0.024896045259560334
0.020024273435729528
0.015601768792610023
0.011661491459186
0.008236480063572976
0.005359832036975303
0.0030646864969278076
0.0013842098754814614
0.000351584458203276

