# vtk DataFile Version 2.0
mesh vtk view
ASCII
DATASET UNSTRUCTURED_GRID
POINTS 101 double
0.0 0.0 0.0
1.0 0.0 0.0
0.009999999999981883 -0.004425236280481736 -1.065158367415831e-13
0.019999999999964085 -0.017422430422419338 -3.02948610343942e-13
0.029999999999945792 -0.038573837829164466 -4.674399076396204e-13
0.03999999999992558 -0.06746180791770745 -6.034970611741672e-13
0.04999999999990435 -0.10366888964615717 -7.153891876534938e-13
0.05999999999988421 -0.1467779757682244 -8.085487468665147e-13
0.06999999999986768 -0.19637248372482116 -8.866260183937142e-13
0.07999999999985366 -0.25203657108501387 -9.518450262547829e-13
0.08999999999983956 -0.3133553834513035 -1.0090699462288402e-12
0.09999999999982535 -0.37991533274787287 -1.060020008458479e-12
0.10999999999981126 -0.45130440381536585 -1.1035456704936392e-12
0.11999999999979608 -0.5271124872422286 -1.1467132942452202e-12
0.1299999999997751 -0.6069317363704487 -1.1771375119961286e-12
0.1399999999997479 -0.6903569464232694 -1.174551791827402e-12
0.14999999999971964 -0.7769859537134958 -1.137743947895743e-12
0.15999999999969142 -0.8664200529043892 -1.0645079752583067e-12
0.169999999999663 -0.9582644303105876 -9.622701392331794e-13
0.1799999999996345 -1.0521286112435768 -8.243275572496966e-13
0.18999999999960607 -1.1476269194257136 -6.626425391649997e-13
0.1999999999995777 -1.244378946518626 -4.936233677265081e-13
0.20999999999954921 -1.3420100298359396 -3.1935668150827146e-13
0.2199999999995206 -1.440151736336423 -1.8566109746056962e-13
0.2299999999994918 -1.5384423510225147 -1.2831478595312149e-13
0.2399999999994631 -1.6365273679005905 -1.1499248065993615e-13
0.2499999999994342 -1.73405998169253 -1.0282525829850467e-13
0.25999999999940543 -1.830701578524537 -9.086910063882199e-14
0.2699999999993765 -1.9261222238577036 -7.751171712129354e-14
0.2799999999993479 -2.020001145965708 -6.39439309184202e-14
0.28999999999931914 -2.112027213308493 -4.9864621552926394e-14
0.2999999999992905 -2.2018994041966997 -3.5664382727246586e-14
0.3099999999992618 -2.289327267189795 -2.1040653130888127e-14
0.3199999999992328 -2.3740313707214984 -5.284941196082145e-15
0.32999999999920376 -2.455743740498976 9.151597757078261e-15
0.33999999999917463 -2.534208283277439 2.368398245054498e-14
0.3499999999991453 -2.6091811956691155 3.693310617055323e-14
0.35999999999911597 -2.6804313567050495 4.996011603367119e-14
0.3699999999990866 -2.747740702929589 6.174225726262288e-14
0.3799999999990573 -2.810904584871068 7.328240230676663e-14
0.3899999999990279 -2.8697321037973453 8.282471311346228e-14
0.39999999999899843 -2.9240464277321303 9.191835008517661e-14
0.40999999999896897 -2.973685085776783 9.938136597476877e-14
0.4199999999989396 -3.018500239852658 1.0675927007248701e-13
0.4299999999989104 -3.0583589330509766 1.1184169872630857e-13
0.4399999999988811 -3.0931433138503697 1.1608110174431987e-13
0.44999999999885176 -3.1227508355368028 1.2064839714238268e-13
0.4599999999988223 -3.147094430236071 1.2248437269812642e-13
0.4699999999987928 -3.1661026570457436 1.255446037276909e-13
0.4799999999987635 -3.1797198238307898 1.2552986600850012e-13
0.4899999999987341 -3.1879060823254495 1.2576873630709224e-13
0.49999999999871547 -3.190637496262596 1.2494735901018902e-13
0.5099999999987306 -3.1879060823312058 1.235508273802133e-13
0.5199999999987565 -3.1797198238421953 1.2064444947843581e-13
0.5299999999987824 -3.166102657062644 1.1690703465348656e-13
0.5399999999988084 -3.147094430258279 1.118220714130478e-13
0.5499999999988342 -3.1227508355640925 1.0599617397130962e-13
0.55999999999886 -3.0931433138824858 1.0057853969366096e-13
0.5699999999988858 -3.058358933087623 9.278965659576107e-14
0.5799999999989117 -3.018500239893491 8.71256494400147e-14
0.5899999999989375 -2.973685085821426 8.016142859987456e-14
0.5999999999989633 -2.924046427780193 7.403151719569218e-14
0.6099999999989892 -2.8697321038484187 6.874289349459378e-14
0.6199999999990152 -2.8109045849247467 6.445830818039706e-14
0.6299999999990411 -2.747740702985465 5.89375114599872e-14
0.6399999999990668 -2.680431356762723 5.381423713485471e-14
0.6499999999990923 -2.6091811957282003 4.650219237458288e-14
0.6599999999991178 -2.534208283337543 4.1304500251511975e-14
0.6699999999991433 -2.4557437405597224 3.472033432081338e-14
0.6799999999991686 -2.3740313707825 2.884446145866473e-14
0.6899999999991939 -2.2893272672506666 2.281568312593574e-14
0.699999999999219 -2.201899404257067 1.8643920522526492e-14
0.7099999999992443 -2.112027213368 1.2976271105407793e-14
0.7199999999992693 -2.0200011460240272 7.470967904759925e-15
0.7299999999992945 -1.9261222239145295 2.1724185638263033e-15
0.7399999999993199 -1.8307015785795904 -3.1924209866171823e-15
0.7499999999993454 -1.734059981745554 -8.373111683359971e-15
0.759999999999371 -1.636527367951357 -1.3188336290255859e-14
0.7699999999993964 -1.538442351070827 -1.8129831398023518e-14
0.7799999999994219 -1.440151736382131 -2.3064696885183042e-14
0.7899999999994473 -1.3420100298789133 -2.557115568317284e-14
0.7999999999994727 -1.2443789465587214 -2.930325526448237e-14
0.8099999999994985 -1.1476269194628237 -3.2313021589639936e-14
0.8199999999995243 -1.052128611277627 -3.4166028467619027e-14
0.8299999999995504 -0.9582644303415245 -3.575209454864895e-14
0.8399999999995765 -0.8664200529322136 -3.613883412059739e-14
0.8499999999996029 -0.7769859537382453 -3.6010561299724927e-14
0.859999999999629 -0.6903569464450002 -3.574516862862947e-14
0.869999999999655 -0.6069317363892484 -3.41741561559713e-14
0.8799999999996814 -0.5271124872582464 -3.2484619361392156e-14
0.8899999999997075 -0.45130440382876913 -3.0028799725957554e-14
0.8999999999997338 -0.3799153327588099 -2.7139614253413146e-14
0.90999999999976 -0.31335538345994557 -2.3772851615889817e-14
0.9199999999997862 -0.2520365710915582 -2.0563818105244256e-14
0.9299999999998125 -0.1963724837294927 -1.6852398759891783e-14
0.9399999999998391 -0.14677797577126683 -1.320247246292311e-14
0.9499999999998656 -0.10366888964784467 -9.753419510398213e-15
0.9599999999998923 -0.06746180791836165 -6.684214019440511e-15
0.9699999999999188 -0.038573837829144836 -4.006275661755929e-15
0.9799999999999457 -0.01742243042211584 -1.8872983652686166e-15
0.9899999999999727 -0.004425236280309943 -4.966092836318238e-16

CELLS 100 300
2 0 2
2 2 3
2 3 4
2 4 5
2 5 6
2 6 7
2 7 8
2 8 9
2 9 10
2 10 11
2 11 12
2 12 13
2 13 14
2 14 15
2 15 16
2 16 17
2 17 18
2 18 19
2 19 20
2 20 21
2 21 22
2 22 23
2 23 24
2 24 25
2 25 26
2 26 27
2 27 28
2 28 29
2 29 30
2 30 31
2 31 32
2 32 33
2 33 34
2 34 35
2 35 36
2 36 37
2 37 38
2 38 39
2 39 40
2 40 41
2 41 42
2 42 43
2 43 44
2 44 45
2 45 46
2 46 47
2 47 48
2 48 49
2 49 50
2 50 51
2 51 52
2 52 53
2 53 54
2 54 55
2 55 56
2 56 57
2 57 58
2 58 59
2 59 60
2 60 61
2 61 62
2 62 63
2 63 64
2 64 65
2 65 66
2 66 67
2 67 68
2 68 69
2 69 70
2 70 71
2 71 72
2 72 73
2 73 74
2 74 75
2 75 76
2 76 77
2 77 78
2 78 79
2 79 80
2 80 81
2 81 82
2 82 83
2 83 84
2 84 85
2 85 86
2 86 87
2 87 88
2 88 89
2 89 90
2 90 91
2 91 92
2 92 93
2 93 94
2 94 95
2 95 96
2 96 97
2 97 98
2 98 99
2 99 100
2 100 1

CELL_TYPES 100
3
3
3
3
3
3
3
3
3
3
3
3
3
3
3
3
3
3
3
3
3
3
3
3
3
3
3
3
3
3
3
3
3
3
3
3
3
3
3
3
3
3
3
3
3
3
3
3
3
3
3
3
3
3
3
3
3
3
3
3
3
3
3
3
3
3
3
3
3
3
3
3
3
3
3
3
3
3
3
3
3
3
3
3
3
3
3
3
3
3
3
3
3
3
3
3
3
3
3
3

POINT_DATA 101
SCALARS DISPL float 1
LOOKUP_TABLE default
0.0
0.0
0.0003515844582169249
0.0013842098755055742
0.003064686496929367
0.005359832036923327
0.008236480063438904
0.01166149145894428
0.015601768792238868
0.020024273435209582
0.02489604525887372
0.03018422474334474
0.035856077336748345
0.04187901989863015
0.04822064906401611
0.054848771365061035
0.061731434948097706
0.06883696272496163
0.07613398679869399
0.08359148400508222
0.09117881241304567
0.09886574862860695
0.1066225257491074
0.11441987181640047
0.12222904862005267
0.13002189070407402
0.13777084443333945
0.14544900697875293
0.15303016508326855
0.1604888334741321
0.16780029279015873
0.17494062689651257
0.1818867594632791
0.18861648968814798
0.19510852704772327
0.20134252496636132
0.2072991132959913
0.21295992950510012
0.21830764847994183
0.22332601084608764
0.22799984972361073
0.23231511583454278
0.23625890088670382
0.23981945916359637
0.24298622725577154
0.2457498418748839
0.24810215569757935
0.25003625119235434
0.25154645238862033
0.2526283345533505
0.25327873174691123
0.2534957422359316
0.2532787317473686
0.25262833455425665
0.25154645238996304
0.25003625119411876
0.2481021556997475
0.24574984187743554
0.24298622725868307
0.23981945916684053
0.2362589008902507
0.2323151158383614
0.22799984972766849
0.22332601085035242
0.21830764848438114
0.21295992950968226
0.20729911330068557
0.20134252497113658
0.1951085270525496
0.18861648969299455
0.18188675946811536
0.17494062690130877
0.16780029279488656
0.16048883347876555
0.15303016508778336
0.1454490069831269
0.1377708444375522
0.1300218907081074
0.12222904862389107
0.11441987182003197
0.10662252575252165
0.09886574863179252
0.09117881241599404
0.0835914840077875
0.07613398680115192
0.06883696272717228
0.06173143495006405
0.05484877136678755
0.048220649065509734
0.04187901989990277
0.035856077337813236
0.030184224744213683
0.024896045259560334
0.020024273435729528
0.015601768792610023
0.011661491459186
0.008236480063572976
0.005359832036975303
0.0030646864969278076
0.0013842098754814614
0.000351584458203276

