# vtk DataFile Version 2.0
mesh vtk view
ASCII
DATASET UNSTRUCTURED_GRID
POINTS 101 double
0.0 0.0 0.0
1.0 0.0 0.0
0.00999999999998105 -1.9136454683658805e-14 0.00116453586295281
0.019999999999962256 -5.3793200690948836e-14 0.004584850110210166
0.029999999999942906 -8.139402106100483e-14 0.010151009953553317
0.03999999999992164 -1.0247188814451535e-13 0.017753107344816763
0.04999999999989938 -1.175719470516528e-13 0.027281286746655663
0.05999999999987804 -1.272306573665682e-13 0.03862578309425204
0.06999999999986012 -1.3200771879403874e-13 0.0516769693983671
0.07999999999984475 -1.3243911388337938e-13 0.06632541344032913
0.08999999999982942 -1.2913437229103128e-13 0.08246194301026481
0.09999999999981411 -1.2265446570428344e-13 0.09997771914084923
0.10999999999979879 -1.136197335727334e-13 0.11876431679014235
0.11999999999978248 -1.0260671619320145e-13 0.13871381242878195
0.12999999999976028 -9.027367344930694e-14 0.15971887798886464
0.13999999999973206 -7.745452795156873e-14 0.1816728806343957
0.14999999999970276 -6.47061314572812e-14 0.20446998781611
0.15999999999967368 -5.246446845370018e-14 0.228005277076967
0.16999999999964446 -4.130991067499538e-14 0.2521748500787062
0.17999999999961527 -3.150500497755844e-14 0.27687595032434176
0.18999999999958608 -2.2869293138400416e-14 0.30200708405658966
0.19999999999955687 -1.5417522983946526e-14 0.3274681438179777
0.20999999999952768 -9.059901011204455e-15 0.35316053416471677
0.21999999999949849 -4.203569479202909e-15 0.3789872990333231
0.22999999999946927 -1.2785017732038024e-15 0.4048532502665517
0.23999999999944016 -2.8033246594844506e-16 0.43066509681344955
0.24999999999941086 -1.7939672871009122e-16 0.4563315741271464
0.25999999999938167 -2.79609219369392e-16 0.4817635732934932
0.2699999999993524 -1.5447612233224762e-16 0.5068742694338294
0.27999999999932335 -1.5732034900760107e-16 0.5315792489359655
0.28999999999929416 -1.1214452722742362e-16 0.555796635078834
0.29999999999926497 -1.3125362353636678e-16 0.5794472116283932
0.3099999999992357 -8.115188745351767e-17 0.602454543995029
0.31999999999920653 -3.9803761737798737e-17 0.6247450975560368
0.32999999999917745 1.9532631027952863e-17 0.6462483527606728
0.33999999999914826 1.031810522201961e-16 0.6668969166497831
0.34999999999911896 1.4164639409494242e-16 0.686626630437113
0.35999999999908977 1.5867162335034443e-16 0.7053766728150415
0.3699999999990605 1.8751097217734685e-16 0.7230896586636626
0.37999999999903145 2.4520228000085833e-16 0.7397117328588505
0.38999999999900226 3.646893354760817e-16 0.7551926588921469
0.39999999999897307 2.786824567884171e-16 0.7694859020329475
0.4099999999989438 4.1056243455067273e-16 0.7825487067816101
0.41999999999891463 2.711129519753176e-16 0.7943421683805943
0.42999999999888555 4.857063733360509e-16 0.8048312981696948
0.43999999999885636 5.5155287173719e-16 0.8139850825906563
0.44999999999882717 5.417850869627712e-16 0.8217765356661011
0.45999999999879787 4.650608216433069e-16 0.8281827447975557
0.4699999999987686 6.770507204519816e-16 0.8331849097475391
0.47999999999873955 6.008643653425776e-16 0.8367683746910451
0.48999999999871036 5.710396865354396e-16 0.8389226532423482
0.49999999999869205 5.719189465174463e-16 0.8396414463837841
0.5099999999987076 6.992294807420178e-16 0.8389226532440318
0.5199999999987339 7.818669668602882e-16 0.836768374694382
0.5299999999987604 5.654032171703547e-16 0.8331849097524829
0.5399999999987867 6.62864214732788e-16 0.8281827448040493
0.549999999998813 5.476715642865004e-16 0.8217765356740753
0.5599999999988394 7.866276677270603e-16 0.8139850826000327
0.5699999999988659 7.728341000485175e-16 0.8048312981803838
0.5799999999988923 6.768932153953847e-16 0.794342168392496
0.5899999999989186 7.485861689506194e-16 0.7825487067946173
0.5999999999989449 6.624940806810938e-16 0.7694859020469508
0.6099999999989714 6.543965534428088e-16 0.7551926589070324
0.6199999999989977 6.995629408813829e-16 0.7397117328745064
0.6299999999990241 6.634038612972073e-16 0.7230896586799763
0.6399999999990504 6.504126544968943e-16 0.7053766728319029
0.6499999999990768 7.354372559828968e-16 0.68662663045441
0.6599999999991032 7.262235361783902e-16 0.6668969166674046
0.6699999999991295 6.467346836642708e-16 0.6462483527785108
0.679999999999156 7.166672072692233e-16 0.6247450975739821
0.6899999999991824 7.19249560420608e-16 0.6024545440129748
0.6999999999992087 6.643028999973905e-16 0.5794472116462388
0.7099999999992351 6.925963828069084e-16 0.5557966350964831
0.7199999999992615 7.135618542613403e-16 0.5315792489533296
0.7299999999992879 6.755262880841417e-16 0.5068742694508266
0.7399999999993142 6.665132702324363e-16 0.4817635733100494
0.7499999999993405 6.691576352731533e-16 0.4563315741431957
0.759999999999367 5.964344862656883e-16 0.43066509682893195
0.7699999999993933 4.448952484347932e-16 0.40485325028142416
0.7799999999994197 5.064716302949068e-16 0.3789872990475562
0.789999999999446 5.310466255031802e-16 0.3531605341782883
0.7999999999994724 4.79500389875447e-16 0.32746814383087075
0.8099999999994988 4.4169362343408647e-16 0.3020070840687949
0.8199999999995252 4.732550871149932e-16 0.2768759503358521
0.8299999999995517 3.955258638773373e-16 0.25217485008951607
0.839999999999578 3.7945004364754104e-16 0.2280052770870758
0.8499999999996044 3.398250137945181e-16 0.204469987825519
0.8599999999996307 2.992658149291958e-16 0.1816728806431038
0.869999999999657 2.8731391507988115e-16 0.15971887799687426
0.8799999999996835 2.5627148556849946e-16 0.138713812436108
0.8899999999997098 2.0390429205992552e-16 0.118764316796798
0.8999999999997362 1.622879522507511e-16 0.09997771914683663
0.9099999999997626 1.6335403459782727e-16 0.08246194301558579
0.9199999999997889 1.1612918992284856e-16 0.0663254134449874
0.9299999999998153 9.915796771669049e-17 0.05167696940236818
0.9399999999998417 7.22614204684046e-17 0.03862578309760055
0.9499999999998682 5.311406802370744e-17 0.027281286749358417
0.9599999999998945 3.2198991635493183e-17 0.017753107346887027
0.9699999999999208 1.8419515526886602e-17 0.01015100995500836
0.9799999999999472 9.624679995205826e-18 0.004584850111069222
0.9899999999999736 2.3004071867764835e-18 0.0011645358632358176

CELLS 100 300
2 0 2
2 2 3
2 3 4
2 4 5
2 5 6
2 6 7
2 7 8
2 8 9
2 9 10
2 10 11
2 11 12
2 12 13
2 13 14
2 14 15
2 15 16
2 16 17
2 17 18
2 18 19
2 19 20
2 20 21
2 21 22
2 22 23
2 23 24
2 24 25
2 25 26
2 26 27
2 27 28
2 28 29
2 29 30
2 30 31
2 31 32
2 32 33
2 33 34
2 34 35
2 35 36
2 36 37
2 37 38
2 38 39
2 39 40
2 40 41
2 41 42
2 42 43
2 43 44
2 44 45
2 45 46
2 46 47
2 47 48
2 48 49
2 49 50
2 50 51
2 51 52
2 52 53
2 53 54
2 54 55
2 55 56
2 56 57
2 57 58
2 58 59
2 59 60
2 60 61
2 61 62
2 62 63
2 63 64
2 64 65
2 65 66
2 66 67
2 67 68
2 68 69
2 69 70
2 70 71
2 71 72
2 72 73
2 73 74
2 74 75
2 75 76
2 76 77
2 77 78
2 78 79
2 79 80
2 80 81
2 81 82
2 82 83
2 83 84
2 84 85
2 85 86
2 86 87
2 87 88
2 88 89
2 89 90
2 90 91
2 91 92
2 92 93
2 93 94
2 94 95
2 95 96
2 96 97
2 97 98
2 98 99
2 99 100
2 100 1

CELL_TYPES 100
3
3
3
3
3
3
3
3
3
3
3
3
3
3
3
3
3
3
3
3
3
3
3
3
3
3
3
3
3
3
3
3
3
3
3
3
3
3
3
3
3
3
3
3
3
3
3
3
3
3
3
3
3
3
3
3
3
3
3
3
3
3
3
3
3
3
3
3
3
3
3
3
3
3
3
3
3
3
3
3
3
3
3
3
3
3
3
3
3
3
3
3
3
3
3
3
3
3
3
3

POINT_DATA 101
SCALARS DISPL float 1
LOOKUP_TABLE default
0.0
0.0
0.0003515844581174384
0.0013842098752206826
0.0030646864964856725
0.005359832036345838
0.00823648006275103
0.011661491458167847
0.015601768791394096
0.020024273434315117
0.024896045257946586
0.030184224742400498
0.03585607733580124
0.04187901989769255
0.04822064906309868
0.05484877136417258
0.06173143494724591
0.06883696272415292
0.07613398679793251
0.08359148400436954
0.09117881241238036
0.09886574862798582
0.10662252574852522
0.11441987181585148
0.12222904861953336
0.13002189070358114
0.13777084443287071
0.14544900697830837
0.153030165082848
0.16048883347373544
0.16780029278978592
0.17494062689616344
0.1818867594629535
0.1886164896878459
0.19510852704744525
0.2013425249661082
0.20729911329576414
0.21295992950489973
0.2183076484797697
0.22332601084594425
0.2279998497234965
0.23231511583445766
0.2362589008866476
0.23981945916356837
0.2429862272557708
0.2457498418749094
0.24810215569762997
0.25003625119242945
0.2515464523887195
0.2526283345534738
0.253278731747059
0.25349574223610444
0.2532787317475673
0.2526283345544812
0.25154645239021206
0.25003625119438994
0.24810215570003746
0.24574984187774024
0.2429862272589979
0.2398194591671616
0.2362589008905746
0.23231511583868536
0.22799984972799053
0.22332601085067094
0.21830764848469497
0.21295992950999035
0.20729911330098624
0.20134252497142827
0.1951085270528307
0.18861648969326372
0.18188675946837152
0.1749406269015512
0.16780029279511435
0.16048883347897783
0.15303016508797962
0.14544900698330684
0.13777084443771614
0.13002189070825543
0.12222904862402349
0.11441987182014857
0.10662252575262261
0.09886574863187837
0.09117881241606524
0.08359148400784462
0.07613398680119611
0.06883696272720487
0.061731434950086574
0.05484877136680163
0.04822064906551686
0.041879019899904356
0.03585607733781064
0.030184224744208153
0.02489604525955304
0.020024273435721492
0.015601768792602059
0.011661491459178793
0.008236480063567017
0.00535983203697087
0.0030646864969249635
0.0013842098754800398
0.0003515844582028811

