# vtk DataFile Version 2.0
mesh vtk view
ASCII
DATASET UNSTRUCTURED_GRID
POINTS 101 double
0.0 0.0 0.0
1.0 0.0 0.0
0.009999999999981045 -8.802769154483045e-14 0.005356864969582924
0.019999999999962246 -2.474487231783645e-13 0.021090310506966754
0.029999999999942885 -3.7441249688062204e-13 0.04669464578634523
0.03999999999992162 -4.713706854647703e-13 0.08166429378615707
0.049999999999899354 -5.408309564376026e-13 0.12549391903461599
0.059999999999878 -5.852610238862134e-13 0.17767860223355927
0.06999999999986008 -6.072355064525779e-13 0.23771405923248853
0.0799999999998447 -6.092199238635449e-13 0.30509690182551386
0.08999999999982937 -5.940181125387435e-13 0.37932493784721794
0.09999999999981404 -5.642105422397035e-13 0.4598975080479062
0.1099999999997987 -5.226507744345734e-13 0.5463158572346546
0.1199999999997824 -4.719908944887264e-13 0.6380835371723966
0.1299999999997602 -4.1525889786681173e-13 0.734706838748777
0.13999999999973195 -3.56290828577216e-13 0.8356952509182198
0.14999999999970265 -2.976482047034934e-13 0.9405619439541055
0.15999999999967357 -2.413365548870207e-13 1.0488242745540475
0.16999999999964435 -1.9002558910497863e-13 1.1600043103620479
0.17999999999961516 -1.4492302289676875e-13 1.2736293714919715
0.18999999999958594 -1.0519874843664185e-13 1.3892325866603117
0.19999999999955673 -7.092060572615397e-14 1.5063534615626963
0.20999999999952754 -4.167554465154047e-14 1.6245384571576962
0.21999999999949832 -1.933641960433337e-14 1.7433415755532855
0.2299999999994691 -5.881108156737488e-15 1.8623249512261368
0.23999999999944 -1.2895293433628466e-15 1.9810594453418668
0.2499999999994107 -8.252249520664192e-16 2.0991252409848724
0.25999999999938156 -1.2862024090992025e-15 2.2161124371500676
0.2699999999993523 -7.105901627283387e-16 2.331621639395614
0.27999999999932323 -7.236736054349645e-16 2.44526454510544
0.28999999999929404 -5.158648252461484e-16 2.5566645213626353
0.29999999999926485 -6.037666682672869e-16 2.665457173490607
0.3099999999992356 -3.732986822861811e-16 2.771290902377132
0.3199999999992064 -1.830973039938741e-16 2.873827448757768
0.3299999999991773 8.985010272858312e-17 2.9727424226990933
0.3399999999991481 4.746328402129018e-16 3.0677258165890007
0.3499999999991188 6.515734128367348e-16 3.1584825000107184
0.35999999999908966 7.29889467411584e-16 3.244732694949189
0.3699999999990604 8.62550472015795e-16 3.326212429852846
0.37999999999903133 1.1279304880039477e-15 3.4026739711507106
0.3899999999990021 1.6775709431899748e-15 3.473886230903874
0.3999999999989729 1.281939301226718e-15 3.539635149351557
0.4099999999989437 1.8885871989330935e-15 3.5997240511954045
0.4199999999989145 1.2471195790864603e-15 3.653973974550732
0.42999999999888544 2.234249317345833e-15 3.7022239715805942
0.43999999999885625 2.5371432099910727e-15 3.744331379917017
0.449999999998827 2.4922114000287466e-15 3.7801720640640633
0.45999999999879776 2.13927977955921e-15 3.809640626068754
0.4699999999987685 3.1144333140791136e-15 3.832650584838678
0.4799999999987394 2.7639760805758558e-15 3.849134523578806
0.48999999999871025 2.626782558063021e-15 3.8590442049147993
0.4999999999986919 2.6308271539802513e-15 3.862350653365405
0.5099999999987074 3.21645561141328e-15 3.859044204922544
0.5199999999987337 3.596588047557324e-15 3.849134523594155
0.5299999999987601 2.6008547989836308e-15 3.8326505848614194
0.5399999999987865 3.0491753877708235e-15 3.809640626098625
0.5499999999988128 2.5192891957179002e-15 3.7801720641007446
0.5599999999988393 3.618487271544475e-15 3.7443313799601485
0.5699999999988657 3.555036860223179e-15 3.702223971629764
0.5799999999988922 3.1137087908187683e-15 3.65397397460548
0.5899999999989185 3.4434963771728475e-15 3.5997240512552375
0.5999999999989448 3.0474727711330296e-15 3.5396351494159717
0.6099999999989713 3.0102241458369186e-15 3.473886230972347
0.6199999999989976 3.2179895280543595e-15 3.402673971222728
0.629999999999024 3.051657761967152e-15 3.3262124299278892
0.6399999999990503 2.9918982106857117e-15 3.2447326950267517
0.6499999999990766 3.3830113775213236e-15 3.158482500090284
0.6599999999991031 3.3406282664205933e-15 3.0677258166700594
0.6699999999991294 2.9749795448556445e-15 2.9727424227811476
0.6799999999991558 3.296669153438425e-15 2.873827448840316
0.6899999999991823 3.308547977934795e-15 2.771290902459683
0.6999999999992086 3.055793339987995e-15 2.665457173572697
0.709999999999235 3.185943360911777e-15 2.556664521443821
0.7199999999992613 3.2823845296021635e-15 2.445264545185315
0.7299999999992879 3.1074209251870497e-15 2.331621639473801
0.7399999999993142 3.0659610430692054e-15 2.216112437226226
0.7499999999993405 3.0781251222565034e-15 2.099125241058699
0.759999999999367 2.7435986368221647e-15 1.981059445413086
0.7699999999993933 2.046518142800048e-15 1.8623249512945501
0.7799999999994197 2.32976949935657e-15 1.7433415756187576
0.789999999999446 2.442814477314628e-15 1.6245384572201254
0.7999999999994724 2.2057017934270547e-15 1.5063534616220047
0.8099999999994988 2.0317906677967968e-15 1.3892325867164559
0.8199999999995252 2.1769734007289676e-15 1.2736293715449192
0.8299999999995517 1.8194189738357506e-15 1.1600043104117732
0.839999999999578 1.7454702007786879e-15 1.048824274600548
0.8499999999996044 1.5631950634547824e-15 0.9405619439973869
0.8599999999996307 1.3766227486742997e-15 0.835695250958277
0.869999999999657 1.3216440093674527e-15 0.7347068387856212
0.8799999999996835 1.178848833615097e-15 0.6380835372060965
0.8899999999997098 9.379597434756569e-16 0.5463158572652704
0.8999999999997362 7.465245803534547e-16 0.45989750807544827
0.9099999999997626 7.514285591500051e-16 0.37932493787169447
0.9199999999997889 5.341942736451031e-16 0.3050969018469419
0.9299999999998153 4.56126651496776e-16 0.23771405925089348
0.9399999999998417 3.3240253415466097e-16 0.17767860224896243
0.9499999999998682 2.443247129090541e-16 0.12549391904704865
0.9599999999998945 1.4811536152326857e-16 0.08166429379568028
0.9699999999999208 8.472977142367833e-17 0.046694645793038426
0.9799999999999472 4.4273527977946777e-17 0.021090310510918413
0.9899999999999736 1.0581873059171819e-17 0.005356864970884758

CELLS 100 300
2 0 2
2 2 3
2 3 4
2 4 5
2 5 6
2 6 7
2 7 8
2 8 9
2 9 10
2 10 11
2 11 12
2 12 13
2 13 14
2 14 15
2 15 16
2 16 17
2 17 18
2 18 19
2 19 20
2 20 21
2 21 22
2 22 23
2 23 24
2 24 25
2 25 26
2 26 27
2 27 28
2 28 29
2 29 30
2 30 31
2 31 32
2 32 33
2 33 34
2 34 35
2 35 36
2 36 37
2 37 38
2 38 39
2 39 40
2 40 41
2 41 42
2 42 43
2 43 44
2 44 45
2 45 46
2 46 47
2 47 48
2 48 49
2 49 50
2 50 51
2 51 52
2 52 53
2 53 54
2 54 55
2 55 56
2 56 57
2 57 58
2 58 59
2 59 60
2 60 61
2 61 62
2 62 63
2 63 64
2 64 65
2 65 66
2 66 67
2 67 68
2 68 69
2 69 70
2 70 71
2 71 72
2 72 73
2 73 74
2 74 75
2 75 76
2 76 77
2 77 78
2 78 79
2 79 80
2 80 81
2 81 82
2 82 83
2 83 84
2 84 85
2 85 86
2 86 87
2 87 88
2 88 89
2 89 90
2 90 91
2 91 92
2 92 93
2 93 94
2 94 95
2 95 96
2 96 97
2 97 98
2 98 99
2 99 100
2 100 1

CELL_TYPES 100
3
3
3
3
3
3
3
3
3
3
3
3
3
3
3
3
3
3
3
3
3
3
3
3
3
3
3
3
3
3
3
3
3
3
3
3
3
3
3
3
3
3
3
3
3
3
3
3
3
3
3
3
3
3
3
3
3
3
3
3
3
3
3
3
3
3
3
3
3
3
3
3
3
3
3
3
3
3
3
3
3
3
3
3
3
3
3
3
3
3
3
3
3
3
3
3
3
3
3
3

POINT_DATA 101
SCALARS DISPL float 1
LOOKUP_TABLE default
0.0
0.0
0.0003515844581174384
0.0013842098752206826
0.0030646864964856725
0.005359832036345838
0.00823648006275103
0.011661491458167847
0.015601768791394096
0.020024273434315117
0.024896045257946586
0.030184224742400498
0.03585607733580124
0.04187901989769255
0.04822064906309868
0.05484877136417258
0.06173143494724591
0.06883696272415292
0.07613398679793251
0.08359148400436954
0.09117881241238036
0.09886574862798582
0.10662252574852522
0.11441987181585148
0.12222904861953336
0.13002189070358114
0.13777084443287071
0.14544900697830837
0.153030165082848
0.16048883347373544
0.16780029278978592
0.17494062689616344
0.1818867594629535
0.1886164896878459
0.19510852704744525
0.2013425249661082
0.20729911329576414
0.21295992950489973
0.2183076484797697
0.22332601084594425
0.2279998497234965
0.23231511583445766
0.2362589008866476
0.23981945916356837
0.2429862272557708
0.2457498418749094
0.24810215569762997
0.25003625119242945
0.2515464523887195
0.2526283345534738
0.253278731747059
0.25349574223610444
0.2532787317475673
0.2526283345544812
0.25154645239021206
0.25003625119438994
0.24810215570003746
0.24574984187774024
0.2429862272589979
0.2398194591671616
0.2362589008905746
0.23231511583868536
0.22799984972799053
0.22332601085067094
0.21830764848469497
0.21295992950999035
0.20729911330098624
0.20134252497142827
0.1951085270528307
0.18861648969326372
0.18188675946837152
0.1749406269015512
0.16780029279511435
0.16048883347897783
0.15303016508797962
0.14544900698330684
0.13777084443771614
0.13002189070825543
0.12222904862402349
0.11441987182014857
0.10662252575262261
0.09886574863187837
0.09117881241606524
0.08359148400784462
0.07613398680119611
0.06883696272720487
0.061731434950086574
0.05484877136680163
0.04822064906551686
0.041879019899904356
0.03585607733781064
0.030184224744208153
0.02489604525955304
0.020024273435721492
0.015601768792602059
0.011661491459178793
0.008236480063567017
0.00535983203697087
0.0030646864969249635
0.0013842098754800398
0.0003515844582028811

