# vtk DataFile Version 2.0
mesh vtk view
ASCII
DATASET UNSTRUCTURED_GRID
POINTS 5151 double
0.0 0.20655558296918525 0.0
200.0 0.0 0.0
200.0567812727624 100.06202884825198 0.0
0.0 100.20620812994828 0.0
1.9993318177347927 0.20653566079023206 0.0
3.9986639282854717 0.20647590024625231 0.0
5.997996624435111 0.20637631931527722 0.0
7.997330198901434 0.20623694795864528 0.0
9.996664944304419 0.2060578281178802 0.0
11.996001153132 0.20583901371020913 0.0
13.995339117705019 0.2055805706226138 0.0
15.99467913014004 0.20528257670427294 0.0
17.994021482312164 0.2049451217572176 0.0
19.993366465816724 0.20456830752499178 0.0
21.992714371927256 0.2041522476790718 0.0
23.99206549155181 0.20369706780275937 0.0
25.991420115186102 0.2032029053722256 0.0
27.990778532867125 0.20266990973434193 0.0
29.99014103412161 0.20209824208089044 0.0
31.98950790790897 0.2014880754187015 0.0
33.98887944256395 0.20083959453521266 0.0
35.98825592573525 0.2001529959589016 0.0
37.987637644320046 0.1994284879139778 0.0
39.9870248843946 0.19866629026867758 0.0
41.98641793114072 0.19786663447642996 0.0
43.985817068767986 0.19702976350910756 0.0
45.9852225804314 0.19615593178150267 0.0
47.984634748144714 0.19524540506609783 0.0
49.98405385268901 0.19429846039712653 0.0
51.98348017351662 0.1933153859628291 0.0
53.98291398865049 0.19229648098473787 0.0
55.982355574578754 0.19124205558271656 0.0
57.981805206144955 0.19015243062439457 0.0
59.98126315643364 0.18902793755753158 0.0
61.980729696651856 0.18786891822373053 0.0
63.9802050960094 0.18667572465180757 0.0
65.97968962158912 0.18544871882900596 0.0
67.97918353821268 0.18418827244810107 0.0
69.97868710831895 0.1828947666282894 0.0
71.97820059182592 0.18156859160763542 0.0
73.97772424599579 0.18021014640464922 0.0
75.9772583252993 0.17881983844640875 0.0
77.97680308128122 0.17739808316043282 0.0
79.97635876242737 0.175945303527307 0.0
81.97592561403498 0.1744619295908228 0.0
83.9755038780879 0.17294839792212538 0.0
85.97509379313816 0.17140515103408677 0.0
87.97469559419612 0.16983263674177704 0.0
89.97430951263146 0.16823130746454837 0.0
91.97393577608706 0.1666016194648237 0.0
93.97357460840928 0.16494403201819402 0.0
95.97322622959717 0.16325900650888064 0.0
97.97289085577442 0.16154700544397546 0.0
99.97256869918769 0.15980849137911404 0.0
101.97225996823613 0.15804392574737594 0.0
103.97196486753644 0.156253767582155 0.0
105.97168359802934 0.1544384721235443 0.0
107.97141635713328 0.15259848929631226 0.0
109.97116333895198 0.15073426204584067 0.0
111.97092473454485 0.1488462245163239 0.0
113.97070073226706 0.14693480005306467 0.0
115.97049151819077 0.14500039900772665 0.0
117.97029727661815 0.14304341632181886 0.0
119.97011819069913 0.14106422885934186 0.0
121.96995444316984 0.13906319245425355 0.0
123.96980621722798 0.13704063863198382 0.0
125.96967369756602 0.13499687095636878 0.0
127.9695570715926 0.13293216094372642 0.0
129.96945653085206 0.13084674347393377 0.0
131.96937227268597 0.12874081161364578 0.0
133.9693045022115 0.12661451074849603 0.0
135.96925343460873 0.1244679318984 0.0
137.96921929781493 0.1223011040613402 0.0
139.96920233569236 0.12011398539487196 0.0
141.96920281176648 0.11790645299859723 0.0
143.96922101365016 0.1156782910020029 0.0
145.96925725830582 0.11342917658617566 0.0
147.9693118983338 0.11115866346926814 0.0
149.96938532953058 0.10886616225623363 0.0
151.96947800003377 0.1065509168820664 0.0
153.96959042146375 0.10421197614864525 0.0
155.96972318260453 0.10184815904523965 0.0
157.96987696634574 0.09945801211807256 0.0
159.97005257085846 0.09703975656485958 0.0
161.9702509363264 0.09459122190000846 0.0
163.97047317906387 0.0921097618480604 0.0
165.97072063557854 0.08959214639280562 0.0
167.9709949202306 0.08703442134098162 0.0
169.97129800177592 0.08443172286434436 0.0
171.97163230663017 0.08177802843373831 0.0
173.97200086071905 0.07906581591424337 0.0
175.97240748837473 0.07628558670867272 0.0
177.97285709791385 0.07342518197099122 0.0
179.97335610293226 0.07046877252401942 0.0
181.97391306541394 0.0673953179535789 0.0
183.97453971146146 0.06417609845915553 0.0
185.97525264672012 0.06077066064548729 0.0
187.9760762774679 0.057119136188397736 0.0
189.97704921900305 0.05312991394398018 0.0
191.97823468240486 0.048638234415242315 0.0
193.9797746573171 0.043392504077253445 0.0
195.9819534254057 0.03646557790761512 0.0
197.9865201626243 0.027835291035481685 0.0
199.98934505440346 2.019583519157141 0.0
199.98861261924029 4.028178472523017 0.0
199.98797217549992 6.033014287634045 0.0
199.9881773583087 8.036467939694631 0.0
199.9887109065303 10.039147453297659 0.0
199.98947230988446 12.04134450919519 0.0
199.99038248485334 14.043205075089151 0.0
199.99140007415576 16.0448173119328 0.0
199.99249791586834 18.046237808801767 0.0
199.99365793486058 20.047505231941198 0.0
199.99486744010213 22.048647102216627 0.0
199.99611727706926 24.049683684368706 0.0
199.99740069057748 26.050630313182594 0.0
199.9987126200926 28.051498864029956 0.0
200.0000492372245 30.052298718216782 0.0
200.00140763217277 32.05303741840463 0.0
200.00278559420195 34.05372112623518 0.0
200.00418145378976 36.054354949707566 0.0
200.0055939663669 38.05494318244285 0.0
200.0070222248208 40.05548948183803 0.0
200.00846559232056 42.055997003991166 0.0
200.0099236497602 44.05646850745786 0.0
200.01139615387808 46.05690643416529 0.0
200.01288300326655 48.05731297333803 0.0
200.01438421026157 50.057690112621266 0.0
200.01589987723167 52.05803967943885 0.0
200.0174301761531 54.05836337482029 0.0
200.01897533061384 56.05866280135802 0.0
200.02053559956997 58.058939486542265 0.0
200.02211126230517 60.059194902415086 0.0
200.02370260413122 62.059430482256126 0.0
200.02530990242587 64.05964763483769 0.0
200.0269334126412 66.05984775664245 0.0
200.02857335393225 68.06003224228746 0.0
200.0302298940581 70.06020249341336 0.0
200.03190313319598 72.06035992600582 0.0
200.03359308628427 74.06050597615888 0.0
200.035299663475 76.06064210409423 0.0
200.03702264823156 78.0607697960926 0.0
200.03876167256036 80.06089056375754 0.0
200.04051618882755 82.06100593968799 0.0
200.04228543761792 84.06111746810865 0.0
200.04406841121568 86.06122668816082 0.0
200.04586381270948 88.06133510614282 0.0
200.04767001191124 90.06144415050238 0.0
200.0494850024944 92.06155509878911 0.0
200.05130637395186 94.06166895686512 0.0
200.05313134103187 96.06178625416729 0.0
200.05495697328536 98.06190670193064 0.0
198.05682198362936 100.06385229853076 0.0
196.0568643929117 100.06567441801401 0.0
194.05690994737677 100.0674972136295 0.0
192.05695891688396 100.06932362866397 0.0
190.0570107336642 100.07115645339735 0.0
188.05706433404455 100.07299808136418 0.0
186.05711836744285 100.07485046680789 0.0
184.05717132418232 100.07671514188337 0.0
182.05722161720018 100.07859325120864 0.0
180.05726763657307 100.08048559005898 0.0
178.05730778712572 100.08239264154055 0.0
176.0573405149734 100.08431461124088 0.0
174.0573643264901 100.086251459024 0.0
172.05737780188227 100.08820292806263 0.0
170.05737960477467 100.09016857133311 0.0
168.05736848875682 100.09214777581798 0.0
166.05734330154843 100.09413978463847 0.0
164.05730298726144 100.09614371730517 0.0
162.05724658711682 100.09815858824209 0.0
160.05717323889618 100.10018332371106 0.0
158.05708217535548 100.10221677724235 0.0
156.05697272178847 100.10425774366124 0.0
154.0568442929048 100.1063049717901 0.0
152.05669638915955 100.10835717589823 0.0
150.05652859266195 100.11041304596843 0.0
148.0563405627706 100.11247125684663 0.0
146.05613203147388 100.11453047634097 0.0
144.05590279864035 100.11658937233592 0.0
142.05565272721395 100.118646618988 0.0
140.05538173842046 100.12070090206896 0.0
138.05508980703843 100.12275092352284 0.0
136.05477695678317 100.12479540530204 0.0
134.054443255841 100.12683309254669 0.0
132.0540888125851 100.12886275616997 0.0
130.05371377149652 100.13088319490977 0.0
128.0533183093074 100.13289323690448 0.0
126.05290263137167 100.1348917408479 0.0
124.05246696830449 100.136877596775 0.0
122.05201157283562 100.13884972652664 0.0
120.05153671690982 100.14080708393821 0.0
118.05104268903794 100.14274865479294 0.0
116.05052979187569 100.14467345657773 0.0
114.04999834002598 100.14658053807518 0.0
112.04944865805625 100.1484689788223 0.0
110.04888107871767 100.15033788846313 0.0
108.04829594135566 100.15218640601944 0.0
106.04769359049894 100.15401369910032 0.0
104.04707437461406 100.15581896306918 0.0
102.0464386450135 100.15760142018411 0.0
100.04578675490417 100.15936031872486 0.0
98.04511905856481 100.16109493211817 0.0
96.04443591063998 100.16280455807072 0.0
94.04373766554026 100.16448851771786 0.0
92.04302467693742 100.16614615479423 0.0
90.04229729734499 100.16777683483153 0.0
88.04155587777471 100.1693799443871 0.0
86.04080076746094 100.17095489030646 0.0
84.04003231364362 100.17250109902169 0.0
82.03925086140444 100.17401801588679 0.0
80.0384567535476 100.17550510455114 0.0
78.03765033052069 100.17696184637049 0.0
76.03683193036876 100.17838773985599 0.0
74.03600188871802 100.17978230015979 0.0
72.03516053877851 100.18114505859695 0.0
70.03430821137913 100.18247556220201 0.0
68.03344523502328 100.18377337331911 0.0
66.0325719359284 100.1850380692241 0.0
64.03168863810367 100.18626924177721 0.0
62.030795663429465 100.18746649710438 0.0
60.029893331742585 100.18862945530593 0.0
58.02898196092672 100.18975775019075 0.0
56.028061867005654 100.19085102903429 0.0
54.02713336423838 100.191908952359 0.0
52.026196765215126 100.19293119373535 0.0
50.025252380952494 100.19391743960217 0.0
48.02430052098809 100.19486738910477 0.0
46.02334149347316 100.19578075394924 0.0
44.02237560526278 100.19665725827201 0.0
42.0214031620036 100.19749663852306 0.0
40.02042446821855 100.19829864336177 0.0
38.019439827388105 100.19906303356422 0.0
36.01844954202832 100.19978958194099 0.0
34.0174539137655 100.20047807326438 0.0
32.01645324340698 100.20112830420419 0.0
30.015447831008675 100.20174008327125 0.0
28.014437975939202 100.2023132307679 0.0
26.01342397694056 100.20284757874471 0.0
[...]
POINT_DATA 5151
SCALARS DISPL_X float 1
LOOKUP_TABLE default
0.0
0.0
-0.6624481822280675
0.0
0.007795459668444703
0.015587503153113726
0.02337271464893892
0.031147679111146326
0.03890898264261261
0.04665321288986207
0.05437695945058106
0.06207681429552966
0.06974937220771116
0.07739123124166764
0.08499899320572168
0.09256926416999911
0.10009865500301923
0.1075837819396076
0.11502126718282932
0.12240773954256458
0.12973983511332599
0.13701419799374248
0.14422748105005623
0.15137634672582384
0.15845746789982962
0.16546752879402474
0.17240322593303925
0.17926126915654678
0.18603838268541445
0.19273130624218418
0.1993367962260077
0.20585162694162928
0.21227259188145933
0.21859650505912015
0.22482020239214143
0.23094054313064274
0.236954411327924
0.24285871734790582
0.24865039940326578
0.2543264251167391
0.25988379309682114
0.2653195345175298
0.270630714690233
0.2758144346137089
0.2808678324866215
0.2857880851643644
0.29057240953985275
0.2952180638251795
0.29972234870815284
0.30408260835458045
0.30829623122363015
0.31236065065976093
0.31627334522043316
0.320031838694056
0.3236336997573224
0.32707654121511776
0.33035801875945103
0.33347582917618823
0.3364277079195599
0.3392114259642771
0.3418247858332355
0.34426561668489375
0.3465317683279791
0.348621104011535
0.35053149181473864
0.3522607944323324
0.35380685711664395
0.3551674934943586
0.3563404689231968
0.35732348098781574
0.3581141366517352
0.3587099254781235
0.35910818820066126
0.3593060797577488
0.3593005256878882
0.35908817050576775
0.3586653163166267
0.3580278494521399
0.35717115228457486
0.3560899965412566
0.35477841331879156
0.35322953347124847
0.3514353899507908
0.34938667076420155
0.34707240709882076
0.34447957528998535
0.3415925827456905
0.3383925952669478
0.3348566440321302
0.33095642086069854
0.32665662328417644
0.3219126340952329
0.3166671896005703
0.310845464512698
0.3043475690213694
0.2970366985944633
0.28871912070364136
0.2791100954411014
0.26775911099266236
0.253928704765624
0.23596233091637525
0.21054337001129342
0.1572647692558623
0.12430769862628885
0.1328527755300389
0.14032461916750028
0.13793081973185495
0.13170609048009846
0.12282305134789669
0.11220434337757468
0.10033246818292849
0.0875243148692681
0.0739907599598042
0.05987986547534212
0.0452984341918754
0.030325276595941374
0.015019432253127133
-0.0005744342855745235
-0.016422375349160738
-0.03249859902276661
-0.048783627547306016
-0.06526294094700794
-0.08192595624264726
-0.09876524373995918
-0.11577591386891639
-0.13295512857745387
-0.15030170477650034
-0.16781578638494343
-0.18549856770272638
-0.20335205511958504
-0.22137885716140124
-0.23958199498283658
-0.2579647268938146
-0.2765303815309976
-0.2952821949684576
-0.3142231474807279
-0.3333557958763117
-0.35268209734456324
-0.37220322061971794
-0.39191933998309947
-0.4118294072081906
-0.4319308960348268
-0.4522195132042396
-0.47268886965493917
-0.4933301055424769
-0.5141314641827454
-0.5350778149439724
-0.5561501389642787
-0.5773250291013776
-0.598574362771825
-0.6198656453719652
-0.6411646883291567
-0.6629231421768476
-0.6634179169719387
-0.6639493855653238
-0.6645206963170807
-0.6651252252527085
-0.6657505628579283
-0.6663809523391673
-0.6669987808007252
-0.6675855325100681
-0.6681224250278512
-0.6685908479768667
-0.6689726726993981
-0.6692504735617599
-0.669407686304738
-0.669428719883959
-0.6692990328431496
-0.6690051819128529
-0.6685348483991937
-0.6678768465463074
-0.6670211171400845
-0.6659587089977774
-0.664681750550776
-0.6631834134086938
-0.6614578695487225
-0.6595002435774993
-0.6573065613461728
-0.6548736960522327
-0.6521993128275356
-0.6492818126872494
-0.646120276597355
-0.642714410308139
-0.6390644904977159
-0.635171312673279
-0.6310361411887726
-0.6266606616563714
-0.6220469359557133
-0.6171973599793661
-0.6121146241955115
-0.6068016770587686
-0.6012616912577711
-0.5954980327524859
-0.5895142325251114
-0.583313960945194
-0.576901004631688
-0.5702792456814819
-0.5634526431248676
-0.5564252164629278
-0.5492010311393738
-0.5417841857994613
-0.5341788011907866
-0.5263890105646063
-0.5184189514415225
-0.5102727586114906
-0.5019545582449859
-0.4934684629995195
-0.4848185680132855
-0.4760089476854445
-0.4670436531502382
-0.4579267103596809
-0.448662118696887
-0.43925385004912787
-0.4297058482764263
-0.4200220290177916
-0.4102062797831238
-0.400262460284459
-0.39019440296523195
-0.38000591369083536
-0.3697007725685517
-0.35928273486847084
-0.34875553202078696
-0.3381228726681572
-0.32738844375473386
-0.3165559116361526
-0.30562892319714835
-0.29461110696560155
-0.2835060742137103
-0.27231742003866544
-0.26104872441669935
-0.24970355322568472
-0.2382854592325923
-0.22679798304314408
-0.21524465401184356
-0.20362899111134264
-0.19195450376073941
-0.18022469261296192
-0.16844305030188333
-0.15661306215021348
-0.14473820683952932
-0.13282195704414235
-0.12086778003070779
-0.10887913822568271
-0.096859489752915
-0.08481228894377027
-0.07274098682231356
-0.06064903156815869
-0.04853986895965122
-0.0364169428001096
-0.024283695329908477
-0.012143567627183223
0.0
0.0
0.0
0.0
0.0
0.0
0.0
0.0
0.0
0.0
0.0
0.0
0.0
0.0
0.0
0.0
0.0
0.0
0.0
0.0
0.0
0.0
0.0
0.0
0.0
0.0
0.0
0.0
0.0
0.0
0.0
0.0
0.0
0.0
0.0
0.0
0.0
0.0
0.0
0.0
0.0
0.0
0.0
0.0
0.0
0.0
0.0
0.0
0.0
0.00733455381361557
0.006881282828307349
0.006435322894136956
0.005996351443049993
0.005564047075685372
0.0051380894706448375
0.004718159286366223
0.004303938057242813
0.003895108085571713
0.003491352330849613
0.003092354297847494
0.0026977979248303816
0.0023073674731930076
0.0019207474197029098
0.001537622352449523
0.0011576768715045626
0.0007805954952201082
0.00040606257298859006
3.3762205209929635e-05
-0.00033662182888742913
-0.0007054061349925807
-0.0010729077585472776
-0.001439444230259377
-0.0018053336019774214
-0.0021708944726704644
-0.0025364460043376556
-0.002902307927743634
-0.0032688005379511408
-0.0036362446796885457
-0.00400496172266053
-0.004375273526969534
-0.00474750239890542
-0.005121971037409776
-0.00549900247161487
-0.005878919989895873
-0.006262047060990806
-0.006648707247790376
-0.007039224114499778
-0.007433921127936219
-0.00783312155383296
-0.008237148349096293
-0.008646324051055577
-0.00906097066484331
-0.009481409550126578
-0.009907961308517005
-0.010340945673071634
-0.010780681401391188
-0.011227486173915956
-0.011681676499093987
0.014665830840805421
0.013759427425423222
0.012867645317416562
0.011989839435832941
0.011125367043771702
0.010273587565684755
0.009433862389921496
0.00860555465981591
0.007788029056486566
0.006980651576384696
0.006182789306467053
0.005393810199720357
0.004613082853586947
0.00383997629366885
0.003073859764913167
0.0023141025322903244
0.001560073692809378
0.0008111420005264746
6.667570603066295e-05
-0.0006739575883073815
-0.0014113910561467029
-0.002146258757125457
-0.0028791957281019014
-0.00361083805506294
-0.004341822925202823
-0.005072788658797878
-0.005804374720696269
-0.006537221711353099
-0.007271971337484196
-0.008009266362561678
-0.008749750537491508
-0.009494068511969454
-0.010242865727151069
-0.010996788290406907
-0.011756482833061847
-0.012522596352211883
-0.013295776037831546
-0.01407666908655254
-0.014865922503663146
-0.01566418289505196
-0.016472096250990022
-0.0172903077238329
-0.018119461401905276
-0.018960200082026625
-0.019813165043314273
-0.020678995825095886
-0.021558330011960655
-0.022451803029124345
-0.023360047951488352
0.021990554656367282
0.020631295898018636
0.01929396710842969
0.017977600804869952
0.016681233037327922
0.015403903111355626
0.014144653288882009
0.012902528471959527
0.01167657587421642
0.010465844684571849
0.00926938572755049
0.008086251124281792
0.00691549395801962
0.0057561679477494
0.004607327133184314
0.0034680255741724995
0.002337317067275949
0.0012142548820030894
9.789151891335165e-05
-0.0010127215084740255
-0.002118533866221093
-0.00322049656556037
-0.004319562100305666
-0.005416684555121763
-0.006512819683910104
-0.007608924957785084
-0.008705959582343182
-0.009804884484136842
-0.010906662266460272
-0.012012257134776955
-0.01312263479231417
-0.01423876230655715
-0.015361607947585246
-0.01649214099942038
-0.017631331545716646
-0.018780150231436976
-0.01993956800231926
-0.021110555824202952
-0.02229408438453405
-0.023491123778621753
-0.024702643183486965
-0.025929610522415804
-0.027172992123613113
-0.02843375237663212
-0.029712853390541666
-0.031011254658088166
-0.03232991273037634
-0.03366978090687073
-0.0350318089457786
0.02930544956007198
0.02749375103066197
0.025711288726494627
0.023956772931763265
0.022228918671953746
0.0205264453384829
0.018848076284162903
0.017192538396138685
0.01555856165268096
0.01394487866994216
0.01235022424446645
0.010773334896923437
0.009212948422176834
0.00766780345045396
0.006136639024019535
0.004618194193384575
0.0031112076367178494
0.0016144173057710681
0.000126560101263974
-0.0013536284197035301
-0.002827414301895549
-0.004296065413980839
-0.005760851632749564
-0.007223044988222564
-0.008683919768680371
-0.010144752584920775
-0.011606822393352844
-0.013071410477805745
-0.014539800390215216
-0.016013277850612836
-0.017493130607126477
-0.018980648256961757
-0.020477122029615692
-0.021983844533878104
-0.02350210947037764
-0.0250332113118615
-0.026578444953597853
-0.028139105336647215
-0.029716487047084975
-0.03131188389459001
-0.03292658847417532
-0.03456189171520105
-0.03621908242218698
-0.03789944681232292
-0.03960426805496004
-0.04133482581875836
-0.0430923958325304
-0.04487824946620614
-0.046693653338682826
0.03660724094545775
0.034343656630193925
0.03211661156658839
0.02992449403448821
0.027765698290026834
0.025638624087038757
0.023541676162329595
0.02147326369315573
0.019431799734935418
0.017415700646860287
0.015423385512675938
0.013453275563481713
0.011503793608957386
0.009573363482981077
0.00766040950913877
0.0057633559911644434
0.0038806267328928396
0.0020106445918419624
0.000151831070100661
-0.0016973940542853996
-0.0035386130525519935
-0.005373410524770639
-0.007203373631716381
-0.009030092277450705
-0.010855159241426472
-0.012680170259267324
-0.014506724051732929
-0.016336422301733572
-0.01817086957959938
-0.020011673217141365
-0.021860443131380036
-0.023718791599153733
-0.025588332984162986
-0.027470683418377342
-0.02936746043999298
-0.03128028259065137
-0.03321076897488873
-0.03516053878523399
-0.037131210796774027
-0.03912440283544437
-0.04114173122474271
-0.04318481021601808
-0.04525525140797372
-0.04735466316149657
-0.04948465001641868
-0.05164681211729521
-0.05384274465578137
-0.056074037337648264
-0.05834227388293731
0.043892655676176354
0.04117787787658672
0.03850693827973869
0.03587790345316111
0.03328884720849814
0.0307378500133882
0.028222998360445468
0.025742384103443407
0.023294103770395085
0.020876257862771426
0.01848695014963497
0.01612428696491615
0.013786376515560288
0.011471328207699395
0.009177251997453569
0.006902257772409464
0.0046444547692508515
0.0024019510324710678
0.00017285291856434522
-0.002044735350514991
-0.004252712081184276
-0.006452978446605655
-0.00864743876724517
-0.010838000731714221
-0.013026575556474044
-0.015215078083425215
-0.01740542681480156
-0.01959954388521908
-0.021799354971134104
-0.02400678913835739
-0.026223778628676052
-0.028452258587021356
-0.030694166731041066
-0.032951442965375555
-0.035226028943228134
-0.03751986757846516
-0.03983490251177542
-0.04217307753495741
-0.04453633597788888
-0.04692662006324976
-0.04934587023460783
-0.05179602446402656
-0.05427901754593298
-0.05679678038457371
-0.05935123928297158
-0.061944315241897904
-0.06457792327797238
-0.06725397177057457
-0.06997436184781317
0.05115842247240604
0.04799328168244118
0.0448792731006698
0.04181414194174769
0.03879564197139277
0.03582153480108931
0.032889589133418703
0.029997579969902884
0.02714328779275389
0.024324497731392176
0.021538998723999073
0.018784582683768723
0.01605904367888248
0.013360177134571117
0.010685779064967014
0.00803364534179804
0.005401571006286055
0.0027873496299831045
0.00018877272963791565
-0.0023963707595158613
-0.0049702949480695015
-0.0075352173911981245
-0.010093359419119749
-0.012646946397107405
-0.015198207913419123
-0.017749377894021832
-0.020302694643469156
-0.022860400811775886
-0.025424743287588595
-0.02799797301841746
-0.030582344759148408
-0.03318011675050724
-0.035793550329620324
-0.038424909475324204
-0.04107646029122494
-0.04375047043023554
-0.04644920846466978
-0.049174943206588356
-0.051929942983673226
-0.0547164748764916
-0.05753680392365146
-0.06039319230199938
-0.06328789848968515
-0.0662231764206197
-0.06920127463954902
-0.07222443546768405
-0.07529489418953612
-0.07841487827230471
-0.0815866066298311
0.05840127230980907
0.05478673706323585
0.051230622184470026
0.047730351967143106
0.044283360608129325
0.04088709137607398
0.037538995724416505
0.03423653236261799
0.030977166298730284
0.02775836786580245
0.02457761174393311
0.021432375989056444
0.018320141078806158
0.01523838898503598
0.012184602281794627
0.009156263296791749
0.006150853313620974
0.003165851831237013
0.00019873588647413814
-0.0027530205554205465
-0.005691947137752222
-0.008620577573282284
-0.011541450025994222
-0.014457107411305976
-0.017370097612914116
-0.02028297361501849
-0.023198293549236006
-0.026118620656039322
-0.029046523161086843
-0.031984574067314794
-0.034935350864185116
-0.03790143515598505
-0.04088541221159972
-0.0438898704387547
-0.046917400786114144
-0.049970596077447166
-0.0530520502824539
-0.056164357729570916
-0.059310112266709486
-0.06249190637656138
-0.06571233025385002
-0.06897397085263418
-0.07227941091256618
-0.07563122797381153
-0.07903199339115449
-0.08248427135865169
-0.08599061795703308
-0.08955358023686272
-0.09317569535128242
0.06561793883352914
0.06155511552043266
0.05755799395401755
0.053623678017022954
0.049749282898746625
0.04593193412700913
0.042168766538880964
0.03845692320576176
0.03479355432773692
0.03117581611137224
0.02760086964432206
0.02406587977928431
0.020568014038968997
0.017104441552878977
0.013672332035796682
0.010268854816988585
0.006891177928269019
0.00353646725819309
0.0002018857788170413
-0.003115407149433508
-0.0064182563898073
-0.009709511554256912
-0.012992027438057966
-0.016268664361362047
-0.019542288415709742
-0.02281577161414352
-0.026091991944191092
-0.02937383332356222
-0.03266418545899594
-0.035965943609243205
-0.03928200825374285
-0.042615284669109715
-0.04596868241612567
-0.04934511474054663
-0.05274749789149806
-0.056178750362101876
-0.05964179205744591
-0.06313954339578527
-0.06667492434959016
-0.07025085343381907
-0.07387024664962435
-0.07753601639255175
-0.08125107033517115
-0.08501831029500592
-0.08884063109958906
-0.09272091946141264
-0.09666205287652091
-0.10066689856145633
-0.10473831244420415
0.07280515878966777
0.06829529143949598
0.06385839945985877
0.05949126691780722
0.05519069064706109
0.05095347913157931
0.04677645132263643
0.042656435406942056
0.03859026754254854
0.03457479057842387
0.030606852772651152
0.026683306523246693
0.022801007124611812
0.018956811561621528
0.015147577352336399
0.011370161449327603
0.007621419208597504
0.003898203434120586
0.0001973635050772156
-0.003484255408143573
-0.0071498130337398595
-0.010802474589808377
-0.014445411273493648
-0.018081800645114977
-0.021714826905144667
-0.02534768106260966
-0.028983560994152033
-0.0326256713936229
-0.03627722361271776
-0.039941435393760424
-0.04362153049636108
-0.047320738220271205
-0.05104229282738508
-0.054789432866511445
-0.05856540040502904
-0.062373440172497706
-0.0662167986217974
-0.07009872291424277
-0.07402245983589434
-0.07799125465316664
-0.08200834991673153
-0.08607698422368097
-0.0902003909489107
-0.09438179695772986
-0.09862442131278587
-0.1029314739894869
-0.10730615461522142
-0.11175165124878371
-0.11627113921751533
0.07995967247665256
0.07500414250483975
0.07012885275416982
0.06533026816402845
0.06060486796272762
0.05594914438936648
0.05135960134450672
0.046832752989197104
0.042365122310980344
0.03795323967450266
0.03359364137330445
0.02928286819827243
0.02501746403710424
0.02079397451800946
0.016608945709715436
0.012458922888713515
0.00834044938357516
0.004250065505065371
0.00018430756974409127
-0.0038602929763716467
-0.007887210328232721
-0.011899924981667987
-0.015901924278849847
-0.01989670283628752
-0.023887762853101378
-0.027878614298104308
-0.03187277497490979
-0.035873770464998525
-0.03988513394932398
-0.04391040590969761
-0.047953133711840304
-0.05201687107262137
-0.05610517741467454
-0.06022161711230724
-0.06436975863313003
-0.06855317358087047
-0.07277543564537566
-0.07704011946675476
-0.0813507994214618
-0.08571104833907868
-0.09012443615956145
-0.09459452854175923
-0.09912488543516268
-0.1037190596279842
-0.10838059528589986
-0.11311302649703481
-0.11791987584003498
-0.12280465299334466
-0.12777085340508573
0.08707822421888844
0.08167855013366909
0.0763663712803896
0.07113783426032821
0.06598910155309719
0.06091635006194086
0.05591576958380484
0.05098356122579098
0.04611593578855762
0.041309112136083084
0.03655931557001357
0.03186277622557389
0.027215727504753397
0.022614404561190182
0.0180550428498945
0.013533876753688012
0.009047138296982837
0.004591055956319818
0.00016185357592508372
-0.004244250604683844
-0.00863104480480385
-0.013002324433497532
-0.017361892693245083
-0.02171356105313004
-0.026061149589249485
-0.0304084871908343
-0.03475941163133184
-0.03911776950444154
-0.043487416025785514
-0.047872214701581435
-0.052276036866368294
-0.05670276109249628
-0.06115627247479203
-0.0656404617945813
-0.07015922456777816
-0.0747164599828571
-0.07931606973510791
-0.08396195676456529
-0.08865802390595715
-0.09340817246002917
-0.0982163006967078
-0.10308630230173749
-0.10802206477966127
-0.11302746782731735
-0.11810638169339543
-0.12326266554099086
-0.12850016583154902
-0.1338227147500316
-0.1392341286926006
0.0941575628650201
0.08831539993062387
0.08256797628002137
0.07691112107721723
0.07134068102569321
0.06585251872069027
0.06044251092297949
0.0551065467778801
0.04984052600207824
0.044640357059502325
0.039501955346146644
0.03442124140233864
0.029394139169525997
0.024416574307199235
0.019484472584152156
0.01459375835685813
0.009740353146359772
0.0049201743237403065
0.00012913391295389838
-0.004636862481536573
-0.009381916615745993
-0.014110138410685983
-0.018825646616112586
-0.02353256933025376
-0.02823504437315766
-0.03293721951216948
-0.03764325253884522
-0.04235731119737514
-0.04708357296530981
-0.05182622468810204
-0.05658946206966507
-0.061377489021845894
-0.06619451687642816
-0.0710447634640716
-0.07593245206515485
-0.08086181023863878
-0.08583706853569431
-0.09086245910588013
-0.09594221420467283
-0.1010805646122664
-0.10628173797473195
-0.1115499570799191
-0.11688943808184236
-0.12230438868873625
-0.12779900633148322
-0.133377476330688
-0.13904397008231062
-0.14480264328340534
-0.15065763422117706
0.10119444231309235
0.0949115821650582
0.08873069321803126
0.08264728822165483
0.07665689920202072
0.07075507560282672
0.06493738234561214
0.05919939783505064
0.05353671193391501
0.04794492393084229
0.042419640522502494
0.036956473830195506
0.03155103946930607
0.026198954688430594
0.02089583659340376
0.015637300469875437
0.010418958216573692
0.005236416899910241
8.527743918142688e-05
-0.005038866569831896
-0.010140429886021981
-0.015223836503619572
-0.02029352037795651
-0.025353925993039896
-0.03040950876859743
-0.03546473530515356
-0.04052408346654382
-0.04559204230004123
-0.050673111795034566
-0.05577180248190605
-0.06089263487347464
-0.06604013875206945
-0.07121885230602801
-0.07643332112022444
-0.08168809702580274
-0.08698773681549243
-0.09233680083151063
-0.09773985143418695
-0.10320145136049852
-0.10872616198289345
-0.11431854148006701
-0.11998314293273765
-0.12572451235896243
-0.13154718670512144
-0.1374556918103795
-0.1434545403641972
-0.14954822987827193
-0.15574124069617562
-0.1620380340658384
0.10818562206478666
0.1014639922726679
0.09485155222813538
0.08834349942336123
0.0819350524432955
0.07562144887586261
0.0693979431398275
0.0632598042586133
0.05720231360681183
0.05122076265443147
0.04531045073222363
0.03946668283965757
0.03368476751532755