# vtk DataFile Version 2.0
mesh vtk view
ASCII
DATASET UNSTRUCTURED_GRID
POINTS 5151 double
0.0 -0.2891778161568594 0.0
200.0 0.0 0.0
199.92050621813263 99.91315961244722 0.0
0.0 99.71130861807241 0.0
2.0009354551523013 -0.289149925106325 0.0
4.001870500362683 -0.2890662603447533 0.0
6.002804725734322 -0.2889268470413882 0.0
8.003737721461441 -0.28873172714210343 0.0
10.004669077876613 -0.2884809593650323 0.0
12.005598385497914 -0.2881746191942929 0.0
14.00652523507771 -0.2878127988716594 0.0
16.007449217652265 -0.2873956073859822 0.0
18.008369924594895 -0.2869231704601047 0.0
20.00928694767215 -0.28639563053498857 0.0
22.010199879101005 -0.28581314675070063 0.0
24.01110831160964 -0.28517589492386325 0.0
26.01201183850101 -0.2844840675211159 0.0
28.01291005372327 -0.28373787362807873 0.0
30.013802551942078 -0.28293753891324674 0.0
32.014688928614866 -0.2820833055861822 0.0
34.015568780072975 -0.2811754323492978 0.0
36.01644170360825 -0.28021419434246225 0.0
38.01730729756463 -0.27919988307956894 0.0
40.01816516143534 -0.2781328063761487 0.0
42.01901489596583 -0.277013288267002 0.0
44.019856103262754 -0.2758416689127507 0.0
46.02068838690905 -0.2746183044941038 0.0
48.02151135208549 -0.27334356709253704 0.0
50.02232460569858 -0.27201784455597716 0.0
52.02312775651501 -0.2706415403479608 0.0
54.0239204153027 -0.26921507337863304 0.0
56.024702194978175 -0.26773887781580324 0.0
58.025472710760575 -0.26621340287415246 0.0
60.02623158033152 -0.2646391125805443 0.0
62.0269784240011 -0.26301648551322276 0.0
64.02771286488199 -0.2613460145125307 0.0
66.02843452906228 -0.2596282063606084 0.0
68.02914304578138 -0.2578635814273416 0.0
70.02983804762476 -0.25605267327960524 0.0
72.03051917070708 -0.25419602825068965 0.0
74.03118605486142 -0.252294204966509 0.0
76.03183834382862 -0.2503477738249723 0.0
78.03247568544607 -0.24835731642460604 0.0
80.03309773183362 -0.24632342493822984 0.0
82.03370413957508 -0.24424670142715196 0.0
84.03429456989315 -0.2421277570909756 0.0
86.03486868881492 -0.23996721144772154 0.0
88.03542616732588 -0.23776569143848794 0.0
90.03596668150857 -0.2355238304503678 0.0
92.03648991266286 -0.23324226725075325 0.0
94.03699554740386 -0.23092164482547167 0.0
96.03748327773289 -0.22856260911243295 0.0
98.03795280107691 -0.22616580762156568 0.0
100.03840382029047 -0.2237318879307597 0.0
102.03883604361478 -0.2212614960463264 0.0
104.03924918458641 -0.21875527461501706 0.0
106.03964296188843 -0.21621386097296208 0.0
108.04001709913524 -0.2136378850148372 0.0
110.04037132458114 -0.21102796686417702 0.0
112.04070537074321 -0.2083847143228535 0.0
114.04101897392418 -0.20570872007429059 0.0
116.04131187362309 -0.20300055861081737 0.0
118.04158381181706 -0.2002607828505465 0.0
120.04183453209579 -0.19748992040307867 0.0
122.04206377862887 -0.19468846943595505 0.0
124.04227129493978 -0.19185689408477738 0.0
126.04245682245859 -0.18899561933891634 0.0
128.04262009882572 -0.18610502532121706 0.0
130.04276085588768 -0.1831854408635073 0.0
132.04287881734632 -0.18023713625910415 0.0
134.042973696037 -0.17726031504789444 0.0
136.0430451907071 -0.17425510465776006 0.0
138.0430929822448 -0.17122154568587633 0.0
140.0431167292425 -0.1681595795528208 0.0
142.04311606276514 -0.16506903419803615 0.0
144.0430905801542 -0.16194960740280412 0.0
146.04303983766238 -0.15880084722064597 0.0
148.04296334164968 -0.15562212885697543 0.0
150.04286053800055 -0.1524126271587271 0.0
152.04273079932224 -0.149171283634893 0.0
154.04257340934646 -0.14589676660810338 0.0
156.04238754377576 -0.14258742266333554 0.0
158.04217224656418 -0.13924121696530165 0.0
160.0419264002728 -0.13585565919080345 0.0
162.04164868864387 -0.13242771066001188 0.0
164.04133754883782 -0.1289536665872846 0.0
166.04099110974337 -0.12542900494992787 0.0
168.04060711125692 -0.1218481898773743 0.0
170.04018279711966 -0.11820441201008214 0.0
172.0397147703501 -0.11448923980723366 0.0
174.03919879465178 -0.11069214227994076 0.0
176.03862951596003 -0.10679982139214185 0.0
178.03800006263168 -0.10279525475938774 0.0
180.03730145563202 -0.09865628153362722 0.0
182.03652170818407 -0.0943534451350105 0.0
184.03564440374373 -0.08984653784281776 0.0
186.03464629440774 -0.08507892490368223 0.0
188.03349321138722 -0.07996679066375684 0.0
190.0321310932644 -0.07438187952157227 0.0
192.03047144452808 -0.06809352818133925 0.0
194.02831547967705 -0.06074950570815484 0.0
196.02526520437945 -0.05105180907066119 0.0
198.0188717722998 -0.038969407449674365 0.0
200.01491692383516 1.972583073161174 0.0
200.0159423330636 3.9605501384295017 0.0
200.0168389543001 5.9537799972536956 0.0
200.01655169836783 7.948944884351674 0.0
200.0158047308576 9.945193565291055 0.0
200.01473876616174 11.94211768701782 0.0
200.01346452120532 13.939512894743812 0.0
200.01203989618196 15.937255763137793 0.0
200.01050291778432 17.93526706749633 0.0
200.00887889119517 19.933492675076213 0.0
200.00718558385705 21.931894056665698 0.0
200.00543581210303 23.930442841627855 0.0
200.00363903319152 25.9291175612635 0.0
200.00180233187038 27.927901590052276 0.0
199.99993106788574 29.926781794165812 0.0
199.9980293149581 31.925747613881096 0.0
199.99610016811727 33.92479042291031 0.0
199.99414596469433 35.92390307004109 0.0
199.99216844708636 37.92307954420384 0.0
199.99016888525088 39.92231472504274 0.0
199.9881481707512 41.92160419402047 0.0
199.98610689033572 43.92094408915922 0.0
199.9840453845707 45.920330991760956 0.0
199.98196379542682 47.91976183691123 0.0
199.9798621056338 49.91923384190683 0.0
199.97774017187567 51.91874444835436 0.0
199.97559775338564 53.918291274812496 0.0
199.97343453714063 55.917872077651786 0.0
199.97125016060207 57.91748471838596 0.0
199.96904423277275 59.917127136156125 0.0
199.9668163542163 61.91679732437086 0.0
199.9645661366038 63.91649331075488 0.0
199.96229322230232 65.91621314025397 0.0
199.95999730449483 67.91595486037723 0.0
199.95767814831865 69.91571650882729 0.0
199.95533561352565 71.91549610322406 0.0
199.95296967920203 73.91529163303606 0.0
199.95058047113503 75.91510105395285 0.0
199.94816829247583 77.91492228518139 0.0
199.9457336584155 79.91475321047676 0.0
199.9432773356414 81.91459168420039 0.0
199.9408003873349 83.91443554443774 0.0
199.93830422429807 85.91428263639095 0.0
199.93579066220673 87.9141308512424 0.0
199.9332619833243 89.91397818916533 0.0
199.93072099650783 91.91382286159013 0.0
199.92817107646738 93.91366346031002 0.0
199.92561612255537 95.9134992441132 0.0
199.9230602374005 97.91333061727084 0.0
197.92044922295298 99.91060678205695 0.0
195.92038984999175 99.90805581478037 0.0
193.92032607377476 99.9055039009187 0.0
191.92025751649874 99.90294691987044 0.0
189.9201849730408 99.90038096524371 0.0
187.92010993254235 99.89780268609016 0.0
185.92003428581882 99.89520934646895 0.0
183.9199601464176 99.89259880136328 0.0
181.91988973622668 99.8899694483079 0.0
179.91982530913876 99.88732017391743 0.0
177.91976909839906 99.88465030184322 0.0
175.91972327944666 99.88195954426277 0.0
173.91968994335738 99.8792479573664 0.0
171.91967107784245 99.87651590071232 0.0
169.9196685538271 99.87376400013365 0.0
167.91968411628622 99.87099311385482 0.0
165.91971937841208 99.86820430150614 0.0
163.9197758184479 99.86539879577276 0.0
161.91985477868445 99.86257797646107 0.0
159.91995746622737 99.8597433468045 0.0
157.92008495521878 99.85689651186071 0.0
155.9202381902466 99.85403915887426 0.0
153.92041799071785 99.85117303949387 0.0
151.92062505599523 99.84829995374248 0.0
149.920859971126 99.84542173564421 0.0
147.92112321300797 99.8425402404147 0.0
145.92141515685742 99.83965733312264 0.0
143.92173608285867 99.8367748787297 0.0
141.92208618288973 99.8338947334168 0.0
139.92246556723472 99.83101873710346 0.0
137.92287427120363 99.82814870706802 0.0
135.92331226159507 99.82528643257714 0.0
133.9237794429482 99.82243367043463 0.0
131.92427566354056 99.81959214136204 0.0
129.92480072109865 99.81676352712631 0.0
127.92535436819651 99.81394946833373 0.0
125.92593631731877 99.81115156281294 0.0
123.92654624561283 99.808371364515 0.0
121.92718379926924 99.8056103828627 0.0
119.92784859756536 99.8028700824865 0.0
117.928540236586 99.80015188328989 0.0
115.92925829261338 99.79745716079117 0.0
113.93000232520298 99.79478724669474 0.0
111.93077187996059 99.79214342964879 0.0
109.93156649103462 99.78952695615162 0.0
107.93238568334141 99.78693903157279 0.0
105.93322897454084 99.78438082125956 0.0
103.93409587677966 99.78185345170316 0.0
101.93498589822046 99.77935801174225 0.0
99.9358985443735 99.77689555378518 0.0
97.93683331924865 99.77446709503455 0.0
95.93778972634344 99.77207361870099 0.0
93.93876726948304 99.76971607519499 0.0
91.93976545352703 99.76739538328806 0.0
89.94078378495651 99.76511243123586 0.0
87.94182177235484 99.76286807785806 0.0
85.94287892679421 99.76066315357095 0.0
83.94395476213843 99.75849846136964 0.0
81.94504879527331 99.7563747777585 0.0
79.94616054627282 99.75429285362841 0.0
77.94728953851059 99.75225341508131 0.0
75.94843529872333 99.75025716420161 0.0
73.94959735703436 99.74830477977629 0.0
71.95077524693741 99.74639691796426 0.0
69.95196850526347 99.74453421291717 0.0
67.95317667212757 99.74271727735324 0.0
65.95439929082629 99.74094670308625 0.0
63.95563590774672 99.73922306151191 0.0
61.95688607225652 99.73754690405387 0.0
59.95814933658402 99.7359187625717 0.0
57.959425255692125 99.73433914973295 0.0
55.960713387147536 99.732808559352 0.0
53.96201329098752 99.73132746669741 0.0
51.963324529586 99.72989632877052 0.0
49.96464666751957 99.72851558455694 0.0
47.96597927143556 99.72718565525332 0.0
45.967321909922354 99.72590694447106 0.0
43.96867415338278 99.72467983841918 0.0
41.97003557391146 99.72350470606771 0.0
39.97140574517642 99.72238189929352 0.0
37.97278424230494 99.7213117530101 0.0
35.97417064177446 99.72029458528262 0.0
33.97556452130831 99.71933069742987 0.0
31.9769654597762 99.71842037411415 0.0
29.978373037099725 99.71756388342025 0.0
27.979786834162816 99.71676147692493 0.0
25.981206432726804 99.7160133897574 0.0
[...]
POINT_DATA 5151
SCALARS DISPL_X float 1
LOOKUP_TABLE default
0.0
0.0
-0.3091424850397648
0.0
0.003637881178607528
0.007274168138119739
0.010907266836171495
0.01453558358520162
0.018157525233219216
0.0217714993486023
0.025375914410271164
0.028969180004580507
0.032549707030265204
0.03611590791277823
0.03966619682933678
0.043198989945999584
0.046712705668075644
0.05020576490515021
0.05367659135198702
0.05712361178653014
0.0605452563862188
0.06393995906374648
0.06730615782335957
0.07064229513871778
0.07394681835325383
0.07721818010387821
0.08045483876875165
0.08365525893972184
0.08681791191986007
0.08994127624635262
0.0930238382388036
0.09606409257276033
0.09906054287801436
0.10201170236092275
0.104916094449666
0.10777225346096661
0.11057872528636453
0.11333406809568938
0.11603685305485736
0.11868566505447825
0.1212791034451832
0.12381578277484724
0.12629433352210873
0.12871340281973084
0.13107165516042335
0.13336777307670336
0.13560045778526464
0.13776842978508377
0.13987042939713798
0.14190521723213753
0.1438715745710274
0.14576830364122176
0.14759422776953549
0.14934819139055946
0.15102905988675047
0.15263571923372163
0.15416707542107716
0.1556220536155545
0.15699959702912797
0.158298665449996
0.15951823338884322
0.16065728778628374
0.16171482521972358
0.16268984853871632
0.16358136284687802
0.16438837073508844
0.16510986665443383
0.16574483029736736
0.16629221883082518
0.16675095779431404
0.16711993043747642
0.16739796522312433
0.16758382116030857
0.1676761705536161
0.16767357865434782
0.16757447956935828
0.1673771476144258
0.16707966307766528
0.1666798710661349
0.16617533171925308
0.1655632595487694
0.16484044895324929
0.1640031819770357
0.16304711302329405
0.161967123312783
0.1607571351353265
0.1594098719479889
0.15791654445790898
0.15626643388166075
0.15444632973499267
0.15243975753261566
0.1502258959111087
0.14777802181359945
0.14506121677259243
0.14202886554330574
0.13861712601074955
0.1347355896616993
0.13025137787251398
0.12495425179657577
0.11850006222395787
0.11011575442764178
0.09825357267193693
0.07339022565273573
0.0580102593589348
0.06199796191401816
0.0654848222781668
0.06436771587486564
0.06146284222404595
0.05731742396235179
0.05236202690953485
0.04682181848536662
0.04084468027232511
0.03452902131457529
0.02794393722182632
0.021139269289541854
0.014151795744772641
0.007009068384792662
-0.000268069333268111
-0.007663775162941679
-0.015166012877291083
-0.022765692855409473
-0.0304560391086037
-0.03823211291323539
-0.04609044707864762
-0.05402875980549432
-0.062045726669478475
-0.07014079556236683
-0.07831403364630693
-0.08656599826127231
-0.09489762572247303
-0.10331013334198724
-0.1118049309919904
-0.12038353921711349
-0.1290475113811322
-0.13779835765194687
-0.1466374688243397
-0.15556603807561215
-0.1645849787607962
-0.1736948362892017
-0.18289569199211309
-0.19218705669715563
-0.2015677514829192
-0.21103577282864516
-0.22058813917230494
-0.23022071591982254
-0.2399280166186145
-0.24970298030718716
-0.2595367315166634
-0.2694183469139762
-0.27933470262685167
-0.2892706345069171
-0.2992101878869398
-0.3093641330158622
-0.3095950279202381
-0.3098430465971511
-0.3101096582813043
-0.3103917717845973
-0.31068359600036655
-0.31097777775827806
-0.3112660977070051
-0.31153991517136514
-0.31179046501299723
-0.31200906238920445
-0.31218724725971914
-0.31231688766215465
-0.31239025360887773
-0.3124000692791809
-0.31233954866013647
-0.31220241822599804
-0.31198292925295706
-0.31167586172161016
-0.3112765213320394
-0.31078073086562946
-0.3101848169236955
-0.30948559292405714
-0.3086803391227372
-0.30776678033616633
-0.3067430619615473
-0.30560772482437526
-0.30435967931951663
-0.3029981792540497
-0.3015227957454324
-0.29993339147713155
-0.29823009556560076
-0.2964132792475302
-0.29448353255476056
-0.29244164210630663
-0.2902885701126662
-0.2880254346570375
-0.28565349129123874
-0.2831741159607587
-0.2805887892536265
-0.2778990819511601
-0.27510664184505196
-0.2722131817744239
-0.2692204688281211
-0.2661303146513582
-0.26294456679160494
-0.2596651010160329
-0.2562938145317078
-0.2528326200397486
-0.24928344055570043
-0.2456482049301496
-0.2419288440060438
-0.23812728735202893
-0.23424546051432676
-0.2302852827331091
-0.22624866507286656
-0.2221375089198741
-0.2179537048034445
-0.21369913150118441
-0.20937565539188058
-0.20498513002292634
-0.2005293958623323
-0.19601028020830275
-0.19142959723212444
-0.18678914813274752
-0.1820907213837749
-0.17733609305572318
-0.17252702719865748
-0.16766527627195305
-0.16275258160970058
-0.15779067391180668
-0.15278127375220915
-0.1477260920968712
-0.1426268308253359
-0.13748518325061404
-0.1323028346330648
-0.12708146268471054
-0.12182273806112637
-0.11652832483865287
-0.11119988097520975
-0.10583905875346725
-0.10044750520552699
-0.09502686251862658
-0.08957876842167839
-0.08410485655271556
-0.07860675680754556
-0.07308609567009963
-0.06754449652511368
-0.061983579953933096
-0.0564049640143303
-0.0508102645053186
-0.045201095218026996
-0.03957906817375946
-0.03394579385041299
-0.028302881398474058
-0.022651938847837238
-0.01699457330671781
-0.011332391153957289
-0.005666998226018837
0.0
0.0
0.0
0.0
0.0
0.0
0.0
0.0
0.0
0.0
0.0
0.0
0.0
0.0
0.0
0.0
0.0
0.0
0.0
0.0
0.0
0.0
0.0
0.0
0.0
0.0
0.0
0.0
0.0
0.0
0.0
0.0
0.0
0.0
0.0
0.0
0.0
0.0
0.0
0.0
0.0
0.0
0.0
0.0
0.0
0.0
0.0
0.0
0.0
0.003422791779687266
0.0032112653198767627
0.0030031506839305793
0.002798297340089997
0.002596555301986507
0.0023977750863009243
0.002201807666970904
0.002008504426713313
0.0018177171066001327
0.001629297754396486
0.0014430986723288305
0.0012589723649208448
0.0010767714874900703
0.0008963487958613579
0.0007175570978097774
0.0005402492067021292
0.0003642778977693839
0.00018949586739467535
1.575569576463383e-05
-0.00015709018681413358
-0.0003291895296632043
-0.0005006902873220629
-0.0006717406407877092
-0.00084248901425613
-0.0010130840872462168
-0.0011836748020242391
-0.0013544103662803625
-0.0015254402510438657
-0.0016969141838546547
-0.0018689821372415809
-0.0020417943125857823
-0.0022155011194891962
-0.002390253150791229
-0.0025662011534202727
-0.002743495995284741
-0.002922288628462376
-0.003102730048968842
-0.0032849712534332295
-0.0034691631930369024
-0.0036554567251220484
-0.0038440025629116036
-0.004034951223825935
-0.0042284529769268785
-0.00442465779005907
-0.004623715277307936
-0.004825774647433429
-0.005030984653982554
-0.005239493547827446
-0.005451449032910527
0.006844054392375863
0.00642106613186417
0.006004901148127729
0.005595258403388707
0.005191837953760128
0.004794340863986219
0.004402469115296698
0.004015925507914091
0.003634413559693731
0.0032576374023128582
0.0028853016763512917
0.0025171114265361665
0.0021527719983405755
0.0017919889370454631
0.0014344678902928113
0.001079914515068818
0.0007280343899777098
0.0003785329335790215
3.111532948097604e-05
-0.0003145135412101114
-0.000658649159535128
-0.0010015874199918798
-0.0013436246731142207
-0.0016850577590293721
-0.0020261840317613174
-0.0023673013741056766
-0.0027087082029915925
-0.0030507034652981126
-0.0033935866241592916
-0.003737657635862116
-0.004083216917496037
-0.004430565305585745
-0.004780004006003832
-0.005131834535523224
-0.005486358655428862
-0.005843878297698879
-0.006204695484321388
-0.0065691122403911855
-0.006937430501709468
-0.007309952017690914
-0.00768697825046201
-0.008068810271122022
-0.008455748654222462
-0.008848093371612424
-0.009246143686879994
-0.009650198051711413
-0.010060554005581639
-0.010477508080258028
-0.010901355710694564
0.010262258839638064
0.00962793808574203
0.00900385131726719
0.008389547042272644
0.007784575417419696
0.007188488118632625
0.00660083820147827
0.006021179953581113
0.005449068741300996
0.004884060852800197
0.004325713339523562
0.00377358385799817
0.0032272305137424897
0.00268621170894972
0.0021500859954860134
0.001618411934613833
0.0010907479647287762
0.0005666522782681084
4.568270882623077e-05
-0.00047260337062121193
-0.0009886491375698432
-0.0015028983972615062
-0.002015795646809311
-0.0025277861257234895
-0.003039315852491382
-0.003550831646966373
-0.004062781138426818
-0.004575612759263859
-0.005089775724348127
-0.005605719996229245
-0.00612389623641328
-0.006644755743060003
-0.007168750375539781
-0.007696332466396176
-0.008227954721334436
-0.008764070108003922
-0.009305131734415654
-0.009851592717961377
-0.01040390604611589
-0.010962524430023483
-0.011527900152293918
-0.012100484910460708
-0.012680729657686119
-0.013269084442428324
-0.013865998248919443
-0.014471918840441144
-0.015087292607508957
-0.01571256442320634
-0.016348177508030012
0.013675876461366924
0.012830417147642253
0.011998601405697494
0.011179827368156191
0.010373495380245082
0.009579007824625353
0.008795768932609355
0.008023184584864718
0.007260662104584448
0.006507610045973008
0.0057634379807510105
0.005027556285230937
0.004299375930349189
0.0035783082768785146
0.002863764877875783
0.002155157290246135
0.0014518968971349963
0.0007533947426931651
5.906138058985452e-05
-0.0006316932625283141
-0.0013194600075512562
-0.0020048305265243918
-0.002688397428616463
-0.0033707543278371967
-0.004052495892050839
-0.004734217872963028
-0.005416517116897994
-0.006099991556309348
-0.006785240182100434
-0.007472862996952656
-0.008163460949992355
-0.00885763585324882
-0.009555990280487323
-0.010259127449143115
-0.010967651086176231
-0.0116821652788687
-0.012403274311678997
-0.013131582490435367
-0.013867693955306322
-0.014612212484142007
-0.015365741287948483
-0.016128882800427156
-0.01690223846368726
-0.017686408512417363
-0.018481991758981353
-0.019289585382087235
-0.020109784721847518
-0.02094318308422953
-0.021790371558051986
0.017083379107880284
0.016027039760757165
0.014987752064407915
0.013964763882761164
0.01295732586867919
0.011964691240618086
0.010986115542420478
0.01002085639013934
0.00906817320963653
0.008127326968534802
0.007197579905915438
0.006278195262958133
0.0053684370175134475
0.00446756962539117
0.003574857770931426
0.0026895661292100736
0.0018109591420166584
0.0009383008095262491
7.085449938030848e-05
-0.0007921172253331865
-0.001651352757857597
-0.0025075915782262984
-0.0033615743614676444
-0.004214043062810329
-0.005065740979332354
-0.005917412787658085
-0.006769804557475367
-0.007623663740809
-0.008479739137146378
-0.00933878083466597
-0.01020154012797735
-0.011068769412938408
-0.011941222059276061
-0.012819652261909426
-0.013704814871996724
-0.01459746520897064
-0.015498358854948074
-0.016408251433109193
-0.01732789837182788
-0.018258054656540706
-0.019199474571546596
-0.02015291143414177
-0.02111911732372107
-0.0220988428086984
-0.023092836674328716
-0.024101845654737764
-0.025126614172697972
-0.026167884090902524
-0.027226394478704077
0.020483239315548962
0.019216343009073805
0.01796990453054472
0.016743021611475187
0.015534795363965797
0.014344330006247828
0.013170732568207884
0.012013112581606922
0.010870581759517706
0.009742253669293332
0.008627243403162985
0.0075246672502942025
0.006433642373928135
0.005353286496926384
0.004282717598811665
0.0032210536271244164
0.0021674122256503973
0.0011209104818198316
8.066469533002778e-05
-0.0009542098302403291
-0.0019845989712193287
-0.003011389941749306
-0.0040354714247144135
-0.005057733674799969
-0.006079068593021221
-0.0071003697722651
-0.008122532513574062
-0.009146453813102237
-0.010173032319862581
-0.011203168264566781
-0.012237763360048823
-0.013277720673943299
-0.01432394447448583
-0.01537734005050859
-0.016438813506839796
-0.017509271536617077
-0.018589621172161862
-0.019680769516313458
-0.02078362345634814
-0.02189908936284989
-0.02302807277615032
-0.0241714780832124
-0.025330208188102055
-0.02650516417946773
-0.02769724499872007
-0.02890734711288569
-0.03013636419638711
-0.03138518682626813
-0.032654702195646146
0.023873930487122816
0.022396864785139216
0.020943660780312574
0.01951326623948226
0.018104632919983293
0.016716716240508342
0.01534847492892873
0.013998870652621346
0.012666867636618482
0.011351432274649683
0.010051532737866235
0.008766138585758736
0.00749422038347849
0.006234749329466521
0.004986696896984607
0.0037490344928390856
0.0025207331362668258
0.001300763160658782
8.809394049769396e-05
-0.0011183063544407353
-0.0023194709757657674
-0.003516434782559125
-0.004710234395589216
-0.005901908318650123
-0.007092497026262258
-0.008283043017210188
-0.00947459083361894
-0.010668187045495414
-0.011864880200874678
-0.013065720741928149
-0.01427176088760259
-0.015484054483570047
-0.016703656820489483
-0.017931624421817963
-0.01916901480257164
-0.020416886200776585
-0.021676297283512565
-0.022948306829741236
-0.02423397339238084
-0.02553435494236275
-0.026850508497704016
-0.028183489740933047
-0.029534352628519736
-0.03090414899628919
-0.03229392816512287
-0.03370473655158589
-0.03513761728845019
-0.03659360986040887
-0.03807374976058785
0.027253927077910897
0.025567143962843396
0.023907623686086014
0.02227416425133345
0.020665568283793685
0.019080642642167855
0.017518198004727703
0.015977048435888395
0.014456010939407465
0.012953905004041144
0.011469552147168783
0.010001775461559675
0.00854939917010954
0.007111248193016791
0.005686147731504159
0.0042729228718361495
0.0028703982130231214
0.0014773975212439394
9.274341368793114e-05
-0.0012847429258629217
-0.0026562419976177034
-0.004022936200865065
-0.005386010012130637
-0.006746650125276123
-0.008106045552693255
-0.00946538768700863
-0.010825870322976803
-0.012188689639485016
-0.013555044141840526
-0.014926134564746903
-0.016303163736619723
-0.017687336406126356
-0.019079859032079868
-0.020481939538085525
-0.021894787033519932
-0.023319611502808677
-0.02475762346514515
-0.026210033607133094
-0.027678052391131094
-0.02916288964239531
-0.030665754118463343
-0.03218785306456262
-0.03373039175919755
-0.03529457305444538
-0.036881596915872096
-0.03849265996737079
-0.040128955046615435
-0.041791670777202604
-0.043481991163931796
0.030621704788980263
0.02872572057620191
0.026860397178541523
0.02502438307461071
0.02321633201941509
0.021434902592604263
0.019678757718144452
0.01794656416268882
0.016236992019610562
0.014548714185307045
0.01288040583401696
0.011230743896999344
0.009598406551518866
0.007982072724676856
0.006380421616705118
0.004792132247928006
0.003215883033192209
0.0016503513871567752
9.421336344795262e-05
-0.001453856669735637
-0.0029951863152434064
-0.004531105391986558
-0.006062946137760384
-0.007592043368635622
-0.00911973459399788
-0.01064736008660031
-0.012176262907289176
-0.013707788884329037
-0.015243286547531435
-0.016784107017646828
-0.018331603851746665
-0.019887132845584535
-0.021452051794191983
-0.023027720212255093
-0.024615499016032428
-0.026216750168980875
-0.027832836293474758
-0.02946512025136646
-0.031114964696475407
-0.0327837316024489
-0.0344727817698247
-0.036183474316524154
-0.037917166156413204
-0.03967521147100276
-0.04145896117980823
-0.0432697624153259
-0.04510895800904309
-0.04697788599534629
-0.0488778791406286
0.03397574076851163
0.03187113600509812
0.02980058641460076
0.027762591228310037
0.025755655635295176
0.02377829026140368
0.021829010617230332
0.01990633652323963
0.018008791519855984
0.01613490226993114
0.014283197960570537
0.012452209710848455
0.010640469991485513
0.008846512062090046
0.007068869431090319
0.005306075343019548
0.003556662297345502
0.0018191616025896068
9.210296903603394e-05
-0.0016259858571336674
-0.0033365794157452677
-0.0050411548085772424
-0.006741191927630369
-0.00843817363438699
-0.010133585889067511
-0.011828917829217842
-0.013525661797270948
-0.01522531331702402
-0.016929371019268287
-0.018639336517088198
-0.020356714231635174
-0.022083011169459897
-0.023819736652779706
-0.025568402004372007
-0.027330520189013552
-0.029107605413832262
-0.03090117269017212
-0.03271273735997996
-0.03454381459008403
-0.03639591883814443
-0.038270563294474716
-0.040169259304384454
-0.04209351577615833
-0.04404483858027393
-0.04602472994596674
-0.04803468786176055
-0.05007620548710333
-0.05215077058276573
-0.054259864968173824
0.03731451382243786
0.03500193316892521
0.03272679795194591
0.03048745847654661
0.028282271715939555
0.026109600715037692
0.0239678139607698
0.021855284728291985
0.019770390411790826
0.01771151184810124
0.01567703264087541
0.013665338492527134
0.011674816550648644
0.009703854775071082
0.007750841331200536
0.005814164014732974
0.0038922097123350744
0.00198336390236384
8.601019921390926e-05
-0.0018014700556401018
-0.00368069815317527
-0.005553298324778394
-0.007420897996796595
-0.009285127990267511
-0.011147622664780643
-0.013010020005782011
-0.014873961654957904
-0.01674109288366598
-0.018613062509684523
-0.020491522757858885
-0.022378129065525477
-0.024274539833889976
-0.02618241612684812
-0.02810342131907671
-0.030039220695460684
-0.03199148100440622
-0.03396186996784197
-0.03595205575115223
-0.03796370639668217
-0.039998489224903386
-0.04205807020779534
-0.04414411331948764
-0.04625827986974258
-0.04840222782639262
-0.05057761113341993
-0.05278607903194958
-0.055029275392016325
-0.05730883806356084
-0.059626398255706675
0.04063650463548127
0.03811665672904558
0.03563763993084848
0.03319765598815317
0.030794914058112022
0.028427630028905738
0.026094025805775592
0.02379232857203579
0.021520770034660224
0.01927758566350544
0.017061013932673
0.01486929557193448
0.012700672835551586
0.010553388795222086
0.0084256866632841
0.006315809151721072
0.004221997871925324
0.002142492779615915
7.553166876503907e-05
-0.0019806502821857943
-0.004027820908908464
-0.0060677514022988484
-0.008102216590181038
-0.010132995158127352
-0.012161869808316426
-0.014190627355722674
-0.01622105876128819
-0.01825495910207272
-0.020294127478699908
-0.022340366860738002
-0.024395483870971874
-0.026461288509831597
-0.028539593821569613
-0.030632215504137937
-0.032740971464963145
-0.03486768132533331
-0.03701416587638369
-0.03918224649013047
-0.04137374448944667
-0.04359048048134695
-0.04583427365846364
-0.04810694107414416
-0.05041029689717526
-0.0527461516527481
-0.05511631145691787
-0.0575225772524624
-0.059966744054722874
-0.06245060021668141
-0.06497592672321362
0.043940196003676046
0.04121385330095781
0.03853172226400997
0.03589185650270138
0.03329231781199017
0.03073117540298879
0.02820650509739043
0.02571638849634405
0.02325891213430318
0.020832166627767754
0.01843424582820177
0.016063245987758032
0.013717264945778799
0.011394401343359643
0.00909275387260434
0.006810420566533794
0.004545498134967893
0.00229608135107881
6.026249271181925e-05
-0.0021638691580504006
-0.004378227754014797
-0.006584731258320126
-0.008785301754185872
-0.010981865687451756
-0.013176354040806908
-0.015370702439012422
-0.017566851184794438
-0.01976674522544173
-0.02197233405047791
-0.024185571521114283
-0.026408415632510368
-0.02864282821019475
-0.030890774542333143
-0.03315422294990008
-0.035435144297072264
-0.0377355114446981
-0.04005729864999068
-0.042402480916077394
-0.044773033295513985
-0.04717093015239099
-0.04959814438820824
-0.05205664663729558
-0.0545484044381931
-0.05707538138807692
-0.059639536288025506
-0.0622428222876544
-0.06488718603841162
-0.06757456686558916
-0.07030689596988263
0.047224073079443096
0.04429207167702716
0.041407656835081255
0.03856873450343892
0.03577321962760967
0.03301903528131914
0.030304111761285668
0.027626385656356965
0.02498379890249367
0.02237429783439307
0.019795832243834497
0.017246354454091235
0.0147238184190095
0.012226178854600945
0.009751390410255089
0.007297406885941871
0.004862180501067723
0.0024436612199581122
3.979613828466588e-05
-0.002351471065921552
-0.004732200613476924
-0.007104457035022467
-0.009470309509713039
-0.011831832130085285
-0.014191104092012135
-0.01655020980907166
-0.018911238951053785
-0.021276286406685906
-0.02364745217101613
-0.026026841158222826
-0.02841656294095483
-0.030818731417632406
-0.03323546440947974
-0.035668883189438075
-0.03812111194537461
-0.04059427718056313
-0.04309050705470496
-0.045611930669287246
-0.04816067730156598
-0.05073887559201694
-0.05334865269069794
-0.055992133368610905
-0.05867143910084914
-0.061388687129056665
-0.06414598951151043
-0.06694545216995869
-0.06978917394319356