# vtk DataFile Version 2.0
mesh vtk view
ASCII
DATASET UNSTRUCTURED_GRID
POINTS 5151 double
0.0 0.06196667489075559 0.0
200.0 0.0 0.0
200.01703438182872 100.0186086544756 0.0
0.0 100.06186243898448 0.0
1.9997995453148996 0.061960698237069636 0.0
3.9995991784746585 0.06194277007387571 0.0
5.999398987314048 0.061912895794583186 0.0
7.999199059648102 0.0618710843875936 0.0
9.998999483262974 0.061817348435364065 0.0
11.99880034590539 0.06175170411306276 0.0
13.998601735272054 0.06167417118678415 0.0
15.998403738997773 0.061584773011281894 0.0
17.998206444644627 0.061483536527165296 0.0
19.998009939691222 0.06137049225749756 0.0
21.9978143115196 0.06124567430372157 0.0
23.99761964740201 0.06110912034082784 0.0
25.997426034486285 0.06096087161166769 0.0
27.997233559783503 0.06080097292030259 0.0
29.99704231015258 0.060629472624267156 0.0
31.996852372281523 0.060446422625610466 0.0
33.99666383267075 0.06025187836056381 0.0
35.99647677761488 0.060045898787670485 0.0
37.99629129318305 0.059828546374193346 0.0
39.99610746519815 0.05959988708060329 0.0
41.99592537921471 0.059359990342929 0.0
43.99574512049563 0.05910892905273228 0.0
45.99556677398738 0.05884677953445081 0.0
47.99539042429411 0.058573621519829366 0.0
49.995216155650134 0.058289538119137965 0.0
51.99504405189115 0.05799461578884874 0.0
53.99487419642405 0.05768894429542136 0.0
55.99470667219525 0.057372616674814976 0.0
57.99454156165785 0.057045729187318386 0.0
59.994378946737186 0.05670838126725949 0.0
61.99421890879539 0.056360675467119176 0.0
63.994061528597236 0.056002717395542294 0.0
65.99390688626879 0.0556346156487018 0.0
67.99375506125355 0.05525648173443034 0.0
69.99360613228315 0.05486842998848683 0.0
71.99346017733293 0.05447057748229064 0.0
73.9933172735816 0.05406304392139479 0.0
75.99317749737035 0.05364595153392264 0.0
77.99304092416263 0.05321942494812986 0.0
79.99290762850418 0.05278359105819211 0.0
81.99277768398417 0.052338578877246855 0.0
83.99265116319776 0.05188451937663762 0.0
85.99252813771054 0.051421545310226045 0.0
87.99240867802564 0.05094979102253312 0.0
89.99229285355395 0.05046939223936453 0.0
91.99218073258832 0.04998048583944713 0.0
93.9920723822827 0.04948320960545821 0.0
95.99196786863676 0.04897770195266421 0.0
97.99186725648764 0.04846410163319265 0.0
99.99177060950935 0.04794254741373423 0.0
101.99167799022158 0.0474131777242128 0.0
103.99158946000935 0.046876130274646516 0.0
105.9915050791549 0.0463315416370633 0.0
107.99142490688385 0.045779546788893684 0.0
109.99134900142715 0.04522027861375221 0.0
111.9912774201027 0.044653867354897174 0.0
113.99121021941706 0.04408044001591942 0.0
115.99114745519185 0.043500119702318006 0.0
117.99108918271784 0.04291302489654567 0.0
119.99103545693983 0.04231926865780257 0.0
121.99098633267873 0.04171895773627608 0.0
123.99094186489393 0.04111219158959516 0.0
125.99090210899303 0.040499061286910644 0.0
127.99086712120226 0.039879648283117936 0.0
129.99083695898744 0.03925402304218013 0.0
131.99081168154524 0.038622243484093745 0.0
133.9907913504106 0.03798435322454881 0.0
135.9907760301374 0.03734037956952001 0.0
137.99076578910697 0.036690331218402074 0.0
139.9907607004778 0.03603419561846159 0.0
141.99076084330775 0.035371935899579175 0.0
143.9907663038805 0.03470348730060088 0.0
145.99077717728483 0.03402875297585271 0.0
147.99079356930093 0.03334759904078045 0.0
149.99081559866767 0.03265984867687009 0.0
151.99084339982625 0.03196527506461993 0.0
153.99087712626286 0.03126359284459358 0.0
155.9909169546128 0.0305544477135719 0.0
157.9909630897428 0.02983740363542178 0.0
159.99101577110432 0.029111926969457882 0.0
161.9910752807523 0.028377366570002543 0.0
163.99114195358126 0.02763292855441813 0.0
165.9912161905433 0.026877643917841688 0.0
167.9912984759466 0.026110326402294493 0.0
169.99138940041783 0.025329516859303312 0.0
171.9914896918818 0.024533408530121502 0.0
173.9916002581161 0.023719744774273018 0.0
175.99172224642044 0.022885676012601826 0.0
177.99185712928988 0.02202755459129737 0.0
179.99200683080304 0.021140631757205833 0.0
181.99217391955523 0.02021859538607368 0.0
183.99236191337712 0.019252829537746662 0.0
185.99257579396235 0.018231198193646193 0.0
187.99282288319438 0.01713574085651932 0.0
189.99311476566263 0.01593897418319406 0.0
191.9934704046908 0.014591470324572696 0.0
193.9939323971721 0.013017751223176038 0.0
195.99458602760637 0.01093967337228454 0.0
197.99595604877965 0.008350587310644508 0.0
199.99680351632105 2.005875055741651 0.0
199.9965837857721 4.008453541745741 0.0
199.99639165264998 6.00990428627311 0.0
199.9964532074926 8.010940381886268 0.0
199.9966132719591 10.0117442359624 0.0
199.99684169296535 12.01240335272679 0.0
199.997114745456 14.012961522488427 0.0
199.99742002224673 16.013445193534256 0.0
199.9977493747605 18.01387134258768 0.0
199.99809738045818 20.014251569522244 0.0
199.99846023203062 22.014594130597605 0.0
199.99883518312078 24.014905105235957 0.0
199.99922020717324 26.015189093872856 0.0
199.99961378602777 28.0154496591198 0.0
200.00001477116734 30.015689615368583 0.0
200.00042228965182 32.0159112254186 0.0
200.0008356782606 34.016116337765425 0.0
200.00125443613692 36.01630648480484 0.0
200.00167818991005 38.016482954623136 0.0
200.00210666744624 40.01664684443941 0.0
200.00253967769618 42.016799101083045 0.0
200.00297709492807 44.01694055212076 0.0
200.0034188461634 46.0170719301307 0.0
200.00386490097998 48.01719389188021 0.0
200.00431526307847 50.01730703366289 0.0
200.0047699631695 52.01741190370587 0.0
200.00522905284592 54.017509012318015 0.0
200.00569259918416 56.01759884027703 0.0
200.006160679871 58.01768184583001 0.0
200.00663337869156 60.017758470589555 0.0
200.00711078123936 62.01782914453959 0.0
200.00759297072776 64.01789429031354 0.0
200.00808002379236 66.01795432686248 0.0
200.0085720061797 68.01800967256365 0.0
200.00906896821743 70.01806074790908 0.0
200.0095709399588 72.01810797769447 0.0
200.01007792588527 74.01815179274806 0.0
200.0105898990425 76.01819263113632 0.0
200.01110679446947 78.0182309387435 0.0
200.01162850176812 80.01826716905065 0.0
200.01215485664827 82.01830178183744 0.0
200.01268563128536 84.0183352403713 0.0
200.0132205233647 86.01836800639461 0.0
200.01375914381285 88.01840053179687 0.0
200.01430100357337 90.0184332451124 0.0
200.01484550074832 92.01846652960607 0.0
200.01539191218555 94.01850068703655 0.0
200.01593940230956 96.01853587623485 0.0
200.0164870919856 98.01857201057153 0.0
198.01704659509875 100.01915568955923 0.0
196.0170593178934 100.01970232540421 0.0
194.01707298424284 100.02024916408885 0.0
192.01708767510493 100.0207970885992 0.0
190.01710322014904 100.0213469360192 0.0
188.01711930027307 100.02189942440926 0.0
186.01713551030252 100.02245514004237 0.0
184.0171513973343 100.02301454256501 0.0
182.0171664852496 100.0235779753626 0.0
180.01718029107138 100.0241456770177 0.0
178.01719233624712 100.02471779246217 0.0
176.01720215461143 100.02529438337227 0.0
174.01720929807638 100.0258754377072 0.0
172.017213340704 100.02646087841879 0.0
170.01721388158163 100.02705057139994 0.0
168.01721054678623 100.0276443327454 0.0
166.01720299063365 100.02824193539153 0.0
164.01719089635748 100.02884311519155 0.0
162.01717397632405 100.02944757647263 0.0
160.0171519718678 100.03005499711333 0.0
158.0171246528156 100.03066503317271 0.0
156.01709181675542 100.03127732309838 0.0
154.01705328810027 100.03189149153702 0.0
152.01700891698664 100.03250715276947 0.0
150.01695857804728 100.03312391379053 0.0
148.01690216908983 100.03374137705399 0.0
146.01683960971076 100.03435914290229 0.0
144.0167708398707 100.03497681170077 0.0
142.01669581845272 100.0355939856964 0.0
140.01661452182464 100.03621027062069 0.0
138.01652694241994 100.03682527705685 0.0
136.0164330873533 100.03743862159061 0.0
134.0163329770806 100.038049927764 0.0
132.01622664411377 100.03865882685099 0.0
130.01611413179714 100.03926495847293 0.0
128.01599549315006 100.03986797107135 0.0
126.0158707897729 100.04046752225437 0.0
124.01574009085274 100.0410632790325 0.0
122.01560347221209 100.041654917958 0.0
120.01546101543435 100.04224212518146 0.0
118.01531280707279 100.04282459643788 0.0
116.01515893792418 100.04340203697332 0.0
114.01499950236926 100.04397416142255 0.0
112.01483459777835 100.0445406936467 0.0
110.01466432397677 100.04510136653894 0.0
108.01448878276818 100.04565592180583 0.0
106.01430807751116 100.0462041097301 0.0
104.0141223127457 100.04674568892075 0.0
102.01393159386552 100.04728042605524 0.0
100.01373602683273 100.04780809561746 0.0
98.01353571793092 100.04832847963546 0.0
96.01333077355349 100.04884136742122 0.0
94.01312130002357 100.04934655531535 0.0
92.01290740344272 100.04984384643826 0.0
90.01268918956501 100.05033305044945 0.0
88.01246676369392 100.05081398331613 0.0
86.0122402305998 100.05128646709194 0.0
84.01200969445462 100.05175032970651 0.0
82.01177525878286 100.05220540476604 0.0
80.0115370264258 100.05265153136534 0.0
78.01129509951774 100.05308855391115 0.0
76.01104957947217 100.05351632195679 0.0
74.01080056697695 100.05393469004794 0.0
72.01054816199152 100.05434351757908 0.0
70.01029246376207 100.05474266866061 0.0
68.01003357084537 100.05513201199574 0.0
66.00977158110695 100.05551142076723 0.0
64.00950659174957 100.05588077253316 0.0
62.00923869933736 100.05623994913131 0.0
60.00896799982134 100.05658883659179 0.0
58.008694588566634 100.05692732505723 0.0
56.00841856038037 100.05725530871028 0.0
54.00814000954021 100.0575726857077 0.0
52.007859029823294 100.0578793581206 0.0
50.00757571453456 100.05817523188065 0.0
48.00729015653527 100.05846021673143 0.0
46.007002448270846 100.05873422618477 0.0
44.00671268179778 100.0589971774816 0.0
42.00642094881006 100.05924899155691 0.0
40.0061273406646 100.05948959300854 0.0
38.005831948405515 100.05971891006926 0.0
36.00553486278761 100.05993687458229 0.0
34.005236174298815 100.06014342197932 0.0
32.00493597318133 100.06033849126125 0.0
30.004634349451898 100.06052202498137 0.0
28.004331392921088 100.06069396923037 0.0
[...]
POINT_DATA 5151
SCALARS DISPL_X float 1
LOOKUP_TABLE default
0.0
0.0
-0.1324896364456135
0.0
0.0015590919336889405
0.003117500630622745
0.0046745429297877835
0.006229535822229265
0.007781796528522521
0.009330642577972415
0.010875391890116213
0.012415362859105931
0.01394987444154223
0.015478246248333528
0.016999798641144336
0.01851385283399982
0.020019731000603846
0.02151675638792152
0.023004253436565866
0.024481547908512917
0.0259479670226652
0.027402839598748494
0.028845496210011243
0.030275269345164765
0.031691493579965924
0.033093505758804945
0.03448064518660785
0.035852253831309355
0.03720767653708289
0.03854626124843684
0.039867359245201545
0.04117032538832585
0.04245451837629187
0.04371930101182403
0.04496404047842829
0.04618810862612855
0.0473908822655848
0.048571743469581166
0.04973007988065316
0.05086528502334782
0.051976758619364224
0.05306390690350596
0.054126142938046594
0.05516288692274179
0.0561735664973243
0.05715761703287287
0.058114481907970555
0.059043612765035905
0.05994446974163056
0.060816521670916085
0.06165924624472603
0.06247213013195218
0.06325466904408664
0.0640063677388112
0.06472673995146448
0.06541530824302355
0.06607160375189021
0.06669516583523764
0.06728554158391198
0.06784228519285543
0.06836495716664709
0.06885312333697875
0.06930635366559582
0.069724220802307
0.07010629836294772
0.07045215888646647
0.07076137142332878
0.07103349869887172
0.07126809378463936
0.07146469619756315
0.07162282733034703
0.07174198509562471
0.07182163764013225
0.07186121595154976
0.07186010513757764
0.07181763410115355
0.07173306326332535
0.07160556989042798
0.07143423045691497
0.07121799930825132
0.07095568266375832
0.0706459066942497
0.07028707799015815
0.06987733415284031
0.06941448141976415
0.06889591505799707
0.06831851654913809
0.06767851905338956
0.06697132880642603
0.06619128417213971
0.06533132465683528
0.06438252681904658
0.06333343792011405
0.06216909290253961
0.060869513804273884
0.05940733971889266
0.057743824140728275
0.05582201908822028
0.053551822198532474
0.050785740953124804
0.04719246618327505
0.042108674002258685
0.03145295385117246
0.024861539725257772
0.02657055510600778
0.028064923833500052
0.02758616394637099
0.026341218096019695
0.02456461026957934
0.022440868675514935
0.020066493636585695
0.01750486297385362
0.014798151991960839
0.011975973095068423
0.00905968683837508
0.0060650553191882745
0.0030038864506254266
-0.00011488685711490471
-0.003284475069832148
-0.006499719804553322
-0.009756725509461203
-0.013052588189401585
-0.01638519124852945
-0.019753048747991837
-0.02315518277378328
-0.026591025715490775
-0.03006034095530007
-0.033563157276988685
-0.03709971354054528
-0.04067041102391701
-0.044275771432280245
-0.047916398996567314
-0.051592945378762925
-0.05530607630619952
-0.05905643899369152
-0.06284462949614558
-0.06667115917526234
-0.07053641946891265
-0.07444064412394359
-0.0783838679966199
-0.08236588144163813
-0.08638617920696537
-0.09044390264084792
-0.09453777393098783
-0.09866602110849537
-0.10282629283654907
-0.1070155629887945
-0.11123002779285575
-0.11546500582027551
-0.119714872554365
-0.12397312907439303
-0.12823293766583135
-0.1325846284353695
-0.13268358339438774
-0.13278987711306478
-0.13290413926341615
-0.1330250450505417
-0.13315011257158565
-0.13327619046783346
-0.13339975616014504
-0.13351710650201362
-0.13362448500557023
-0.13371816959537333
-0.13379453453987963
-0.13385009471235199
-0.1338815372609476
-0.13388574397679182
-0.13385980656862992
-0.13380103638257057
-0.13370696967983875
-0.1335753693092615
-0.1334042234280169
-0.13319174179955548
-0.1329363501101552
-0.13263668268173878
-0.1322915739097445
-0.13190004871549987
-0.13146131226923458
-0.13097473921044653
-0.13043986256550713
-0.12985636253744987
-0.129224055319471
-0.1285428820616278
-0.1278128980995432
-0.1270342625346558
-0.12620722823775454
-0.12533213233127427
-0.12440938719114265
-0.12343947199587321
-0.1224229248391023
-0.12136033541175373
-0.12025233825155421
-0.11909960655049719
-0.11790284650502228
-0.1166627921890388
-0.1153802009263376
-0.11405584913629638
-0.11269052862497353
-0.11128504329258554
-0.10984020622787477
-0.10835683715989226
-0.10683576023815733
-0.10527780211292126
-0.10368379028830449
-0.10205455172229812
-0.10039091164899719
-0.0986936925999039
-0.0969637136026571
-0.0952017895370889
-0.09340873063004765
-0.09158534207193618
-0.0897324237393774
-0.08785077000982558
-0.08594116965528527
-0.08400440580355832
-0.08204125595662476
-0.0800524920568918
-0.0780388805930464
-0.07600118273816707
-0.07394015451371035
-0.07185654697369416
-0.0697511064041574
-0.06762457453363144
-0.06547768875094678
-0.06331118232723051
-0.06112578463942967
-0.05892222139312031
-0.056701214842742056
-0.054463484007733085
-0.05220974488333987
-0.04994071064513694
-0.047657091846518465
-0.045359596608628816
-0.04304893080236871
-0.04072579822226853
-0.038390900752147884
-0.036044938522592385
-0.03368861006037667
-0.031322612430042696
-0.02894764136790587
-0.02656439140882847
-0.02417355600614156
-0.021775827645136542
-0.019371897950583
-0.016962457788754055
-0.014548197364462712
-0.012129806313631739
-0.009707973791930245
-0.0072833885600219195
-0.004856739065981695
-0.0024287135254366446
0.0
0.0
0.0
0.0
0.0
0.0
0.0
0.0
0.0
0.0
0.0
0.0
0.0
0.0
0.0
0.0
0.0
0.0
0.0
0.0
0.0
0.0
0.0
0.0
0.0
0.0
0.0
0.0
0.0
0.0
0.0
0.0
0.0
0.0
0.0
0.0
0.0
0.0
0.0
0.0
0.0
0.0
0.0
0.0
0.0
0.0
0.0
0.0
0.0
0.001466910762723114
0.0013762565656614697
0.001287064578827391
0.0011992702886099986
0.0011128094151370744
0.0010276178941289677
0.0009436318572732446
0.0008607876114485627
0.0007790216171143426
0.0006982704661699226
0.0006184708595694988
0.0005395595849660763
0.00046147349463860157
0.00038414948394058197
0.0003075244704899046
0.00023153537430091253
0.00015611909904402166
8.1212514597718e-05
6.752441041985928e-06
-6.732436577748582e-05
-0.00014108122699851613
-0.0002145815517094555
-0.0002878888460518754
-0.00036106672039548426
-0.00043417889453409287
-0.0005072892008675311
-0.0005804615855487268
-0.0006537601075902282
-0.0007272489359377092
-0.0008009923445321061
-0.0008750547053939068
-0.000949500479781084
-0.0010243942074819553
-0.001099800494322974
-0.0011757839979791747
-0.0012524094121981611
-0.0013297414495580752
-0.0014078448228999555
-0.0014867842255872439
-0.0015666243107665921
-0.0016474296698192586
-0.001729264810211115
-0.0018121941329686622
-0.0018962819100253156
-0.001981592261703401
-0.0020681891346143264
-0.0021561362802782376
-0.002245497234783191
-0.0023363352998187975
0.002933166168161084
0.0027518854850846442
0.0025735290634833125
0.0023979678871665884
0.0022250734087543404
0.002054717513136951
0.0018867724779842994
0.001721110931963182
0.0015576058112973133
0.0013961303152769393
0.0012365578612934106
0.0010787620399440713
0.0009226165707173894
0.0007679952587337699
0.0006147719529826334
0.0004628205064580649
0.0003120147385618756
0.00016222840010529492
1.3335141206132589e-05
-0.0001347915176614763
-0.00028227821122934056
-0.00042925175142509127
-0.0005758391456203803
-0.0007221676110125881
-0.0008683645850405647
-0.0010145577317595756
-0.0011608749441392539
-0.0013074443422706197
-0.0014543942674968393
-0.0016018532725123355
-0.0017499501074983016
-0.0018988137023938905
-0.0020485731454302136
-0.002199357658081382
-0.0023512965666123696
-0.0025045192704423766
-0.002659155207566309
-0.002815333817310508
-0.002973184500732629
-0.0031328365790103917
-0.0032944192501980045
-0.0034580615447665805
-0.003623892280381055
-0.0037920400164053246
-0.003962633008662854
-0.004135799165019177
-0.004311666002392131
-0.004490360605824869
-0.0046720095902976705
0.004398110931273456
0.004126259179603727
0.0038587934216859385
0.0035955201609739907
0.003336246607465584
0.0030807806222711252
0.0028289306577764014
0.0025805056943919054
0.002335315174843284
0.00209316893691437
0.001853877145510098
0.0016172502248563586
0.001383098791603924
0.00115123358954988
0.0009214654266368628
0.0006936051148344999
0.00046746341345518984
0.00024285097640061788
1.9578303782670332e-05
-0.0002025443016948051
-0.00042370677324421853
-0.000644099313112074
-0.0008639124200611333
-0.0010833369110243526
-0.001302563936782021
-0.0015217849915570168
-0.0017411919164686362
-0.001960976896827368
-0.0021813324532920543
-0.002402451426955391
-0.002624526958462834
-0.00284775246131143
-0.003072321589517049
-0.0032984281998840754
-0.003526266309143329
-0.0037560300462873954
-0.003987913600463852
-0.00422211116484059
-0.00445881687690681
-0.00469822475572435
-0.004940528636697393
-0.005185922104483161
-0.005434598424722622
-0.005686750475326425
-0.005942570678108333
-0.006202250931617633
-0.006465982546075267
-0.006733956181374146
-0.00700636178915572
0.005861089912014396
0.005498750206132394
0.005142257745298926
0.004791354586352653
0.00444578373439075
0.00410528906769658
0.003769615256832581
0.003438507679227737
0.003111712330536192
0.002788975733988432
0.00247004484889329
0.0021546669793846875
0.0018425896844353668
0.001533560690090792
0.001227327804803907
0.0009236388386769149
0.0006222415273435699
0.0003228834611542136
2.5312020252794797e-05
-0.000270725683940706
-0.0005654828603791098
-0.0008592130827961679
-0.0011521703265499126
-0.0014446089976445128
-0.001736783953736074
-0.002028950516984155
-0.0023213644786705687
-0.002614282095561149
-0.002907960078043043
-0.0032026555701225668
-0.003498626121425295
-0.003796129651392351
-0.004095424405923138
-0.00439676890677562
-0.004700421894075528
-0.0050066422623723
-0.0053156889907195705
-0.005627821067329443
-0.005943297409416995
-0.006262376778918003
-0.006585317694835064
-0.006912378343040209
-0.007243816484437397
-0.007579889362464584
-0.007920853610992009
-0.008266965163751671
-0.008618479166506078
-0.008975649893241228
-0.009338730667736566
0.007321448189091549
0.006868731326038786
0.006423322313317678
0.005984898806897642
0.005553139658005367
0.005127724817407751
0.004708335232465919
0.004294652738631146
0.003886359946987084
0.0034831401293720574
0.003084677102535188
0.002690655112696343
0.0023007587217914773
0.0019146726965962155
0.001532081901827754
0.0011526711982328887
0.0007761253465785679
0.0004021289183683925
3.0366214020132204e-05
-0.00033947881085707993
-0.0007077226105103988
-0.0010746821049541278
-0.0014406747263432762
-0.001806018455490141
-0.002171031848285295
-0.002536034051853465
-0.002901344810346586
-0.0032672844603467144
-0.0036341739159198765
-0.004002334643428273
-0.004372088626276007
-0.004743758319830747
-0.005117666596832597
-0.005494136683675468
-0.005873492087998596
-0.006256056518130274
-0.006642153794977746
-0.007032107757046798
-0.007426242159354805
-0.007824880567088873
-0.008228346244948542
-0.008636962043203616
-0.009051050281594746
-0.009470932632299315
-0.009896930003283736
-0.010329362423459042
-0.010768548931156273
-0.011214807467529652
-0.011668454776587463
0.00877853113523527
0.008235575575317344
0.007701387655947738
0.007175580690632222
0.006657769441699627
0.00614757000267764
0.005644599672089094
0.005148476820688681
0.004658820754079017
0.004175251572554285
0.003697390029926994
0.0032248573929832295
0.0027572753031120576
0.0022942656415398787
0.0018354503994907137
0.0013804515544818927
0.0009288909538501703
0.0004803902064942136
3.4570583712869045e-05
-0.00040894707010299817
-0.0008505424162368552
-0.001290595689321131
-0.001729487753449034
-0.002167600146342844
-0.002605315111294809
-0.003043015616685043
-0.003481085362960312
-0.003919908777043816
-0.004359870994226821
-0.004801357827671477
-0.00524475572573521
-0.0056904517174042706
-0.006138833346208213
-0.00659028859307511
-0.007045205788645627
-0.007503973515693034
-0.007966980502355083
-0.008434615506991481
-0.008907267195577774
-0.009385324012649953
-0.009869174046921565
-0.010359204892805313
-0.010855803509186595
-0.011359356076914741
-0.011870247856594317
-0.012388863048379582
-0.012915584655594475
-0.013450794354114915
-0.013994872369562636
0.010231684494481207
0.009598656336488235
0.00897585462013396
0.00836282838834954
0.007759128394278554
0.007164306960217861
0.006577917826683741
0.005999515993980577
0.005428657558550778
0.0048648995462784355
0.004307799744799815
0.0037569165367537447
0.0032118087357764957
0.0026720354269142233
0.002137155812993403
0.001606729068359608
0.001080314201257211
0.0005574699259966209
3.7754545927583126e-05
-0.00047927415190317224
-0.0009940589896139003
-0.001507043478239625
-0.0020186718838239495
-0.002529389279421481
-0.003039641582683825
-0.0035498755788043665
-0.004060538928693831
-0.004572080162355177
-0.005084948657517719
-0.005599594603683492
-0.006116468951829682
-0.006636023350101449
-0.007158710065924064
-0.007684981895064842
-0.008215292058244988
-0.008750094086047109
-0.009289841692933957
-0.009834988641317672
-0.010385988596734645
-0.01094329497529832
-0.011507360784730292
-0.012078638460399877
-0.01265757969793703
-0.013244635284123939
-0.013840254927909804
-0.01444488709353681
-0.015058978837907225
-0.015682975654460942
-0.01631732132596622
0.011680254461961814
0.010957347412647169
0.010246124436894006
0.009546070393428622
0.008856672121625865
0.008177418275214794
0.007507799144883302
0.0068473064725235976
0.0061954332597460565
0.0055516735731604904
0.004915522348786621
0.00428647519781129
0.0036640282157612315
0.003047677797007196
0.0024369204563589254
0.0018312526593583498
0.0012301706627241948
0.0006331703662474026
3.9747177294827634e-05
-0.0005506041110841093
-0.0011383894275504443
-0.0017241155146564564
-0.0023082900051988446
-0.0028914214822611953
-0.0034740195225828234
-0.004056594723003699
-0.0046396587098472015
-0.005223724131207864
-0.005809304632217368
-0.0063969148134629585
-0.006987070172837024
-0.00758028703119701
-0.008177082442319943
-0.00877797408775094
-0.009383480157222828
-0.009994119215489433
-0.010610410056490778
-0.011232871545914184
-0.011862022453341897
-0.012498381275312276
-0.013142466050770005
-0.013794794170526838
-0.014455882182513237
-0.015126245594762307
-0.015806398678230898
-0.016496854271730338
-0.017198123591406614
-0.017910716047372544
-0.018635139070256483
0.013123587766705826
0.012311023104086532
0.011511598790803509
0.010724735603404591
0.009949856579749325
0.009186386825401826
0.008433753307776194
0.007691384641152351
0.006958710865547384
0.006235163222274448
0.005520173928864412
0.004813175955856862
0.0041136028077938
0.0034208883105757955
0.0027344664071593363
0.002053770963397717
0.0013782355856538039
0.0007072934516386179
4.0377155763408265e-05
-0.0006230814298867016
-0.0012836512779614599
-0.001941902310851382
-0.0025984054876115933
-0.0032537328722724093
-0.003908457683141948
-0.0045631543228287046
-0.0052183983888382185
-0.005874766664712445
-0.006532837091799187
-0.007193188721848641
-0.00785640165074857
-0.008523056933821944
-0.009193736483225134
-0.009869022948109325
-0.010549499578299612
-0.011235750072420374
-0.011928358411489181
-0.012627908679157054
-0.013334984869918031
-0.014050170686763815
-0.014774049329924871
-0.015507203278510353
-0.01625021406703423
-0.01700366205900118
-0.017768126219917815
-0.01854418389228253
-0.01933241057530418
-0.020133379712291267
-0.020947662488840828
0.014561031757933555
0.013659058287899194
0.012771679891971754
0.011898253383561444
0.011038138129412218
0.010190695826315863
0.009355290264527286
0.008531287081388412
0.007718053508509707
0.006914958115684773
0.00612137055453023
0.005336661304649338
0.004560201424922363
0.0037913623123243057
0.0030295154704672797
0.0022740322898655205
0.0015242838417195007
0.0007796406868241172
3.947270101544312e-05
-0.0006968510816287146
-0.0014299626067479719
-0.002160494917961675
-0.0028890822546987294
-0.0036163601290229953
-0.004342965381028933
-0.005069536212521932
-0.005796712198830407
-0.00652513427872458
-0.0072554447225435525
-0.007988287078752085
-0.008724306099272217
-0.009464147644054241
-0.010208458565477016
-0.010957886573302288
-0.011713080081005807
-0.012474688034499542
-0.01324335972435948
-0.014019744582848555
-0.014804491967178868
-0.015598250930633328
-0.016401669983346308
-0.017215396844736195
-0.018040078189782142
-0.01887635939154597
-0.019724884262557175
-0.020586294797897378
-0.021461230923044285
-0.02235033024975674
-0.02325422784350307
0.015991934495330512
0.015000828500967948
0.014025770550833963
0.01306605363280569
0.012120973592545523
0.011189828877873297
0.010271920268901343
0.009366550597839422
0.008473024462196069
0.007590647934900533
0.00671872827466089
0.005856573639654486
0.005003492807420847
0.004158794903601892
0.003321789141943087
0.002491784577742703
0.001668089876715032
0.0008500131010130743
3.6861513948818255e-05
-0.0007720585952743293
-0.0015774420656465443
-0.0023799849963335976
-0.0031803848557699693
-0.0039793405672575045
-0.004777552570620276
-0.0055757228596208614
-0.006374554994981959
-0.007174754092999705
-0.007977026789864795
-0.008782081181939523
-0.00959062674236806
-0.010403374214524275
-0.011221035482934908
-0.012044323422461447
-0.012873951726626007
-0.013710634716174095
-0.01455508712907513
-0.015408023893350954
-0.01627015988429236
-0.017142209667815735
-0.018024887231912288
-0.01891890570835185
-0.019824977087032535
-0.020743811925596836
-0.02167611905717997
-0.02262260529940696
-0.023583975168006997
-0.024560930598668932
-0.025554170681017147
0.017415644843777688
0.01633571002673382
0.015273274256077921
0.014227566852065644
0.013197820310619437
0.012183270012388173
0.011183153916760967
0.010196712245158196
0.009223187157711525
0.008261822427216618
0.007311863114002715
0.006372555245114777
0.005443145500950679
0.004522880912238037
0.0036110085699788998
0.002706775350737602
0.0018094276593965677
0.0009182111912639636
3.237071518501674e-05
-0.000848850120936769
-0.00172620896096077
-0.0026004648866995066
-0.003472378538649017
-0.004342712210626008
-0.005212229917849897
-0.00608169743816686
-0.006951882326266368
-0.007823553900888309
-0.008697483205157104
-0.009574442940316287
-0.01045520737327366
-0.011340552218499255
-0.012231254494958406
-0.013128092358916259
-0.014031844913555632
-0.01494329199657142
-0.01586321394702158
-0.016792391352913057
-0.01773160478119143
-0.018681634492005834
-0.01964326013934156
-0.020617260460347498
-0.021604412955932253
-0.02260549356546347
-0.02362127633867909
-0.02465253310819817
-0.025700033166309803
-0.02676454295000632
-0.027846825738520126
0.01883151257300402
0.017663079986124774
0.016513595256004272
0.015382224215443448
0.014268136205138643
0.013170503744138053
0.012088502184595899
0.01102130935557602
0.009968105200415649
0.008928071411900466
0.00790039106922933
0.006884248280467728
0.0058788278339052
0.004883314861439847
0.0038968945168304315
0.002918751671371626
0.001948070629271954
0.0009840348647480613
2.582678259077968e-05
-0.0009273724963073146
-0.001876383323149199
-0.002822027682137197
-0.003765129323222517
-0.004706513866050753
-0.0056470088746315315
-0.006587443902433895
-0.007528650507769045
-0.008471462239475027
-0.009416714593061962
-0.010365244937620408
-0.011317892413933014
-0.012275497804369179
-0.013238903375285632
-0.01420895269281432
-0.015186490413030971
-0.016172362047727755
-0.01716741370713886
-0.018172491821176025
-0.019188442840934565
-0.020216112922453282
-0.02125634759494639
-0.02230999141598382
-0.023377887616368474
-0.02446087773774725
-0.025559801266296645
-0.0266754952661376
-0.02780879401646212
-0.028960528656681066
-0.03013152684423541
0.020238888462618468
0.01898231643301164
0.017746138643606253
0.016529457644330968
0.015331379840404145
0.014151015120565344
0.01298747646912243
0.011839879567010127
0.010707342386783001
0.009588984786168459
0.008483928104500498
0.007391294766039102
0.006310207893861214
0.005239790937686119
0.004179167318680752
0.0031274600939750876
0.002083791643314738
0.0010472833799820482
1.7055487836285377e-05
-0.0010077733139663794
-0.002028085977204396
-0.0030447673007239144
-0.004058704075591302
-0.005070785198607979
-0.006081901753719487
-0.007092947061030712
-0.008104816693308765
-0.009118408460008245
-0.010134622359006914
-0.01115436049638121
-0.012178526974694927