# vtk DataFile Version 2.0
mesh vtk view
ASCII
DATASET UNSTRUCTURED_GRID
POINTS 5151 double
0.0 -0.020655558296918522 0.0
200.0 0.0 0.0
199.99432187272376 99.9937971151748 0.0
0.0 99.97937918700518 0.0
2.000066818217818 -0.020653566079023206 0.0
4.0001336071541935 -0.020647590024625233 0.0
6.000200337530583 -0.020637631931527723 0.0
8.000266980074771 -0.02062369479586453 0.0
10.000333505525008 -0.02060578281178802 0.0
12.000399884633044 -0.020583901371020914 0.0
14.000466088167501 -0.020558057062261378 0.0
16.000532086916476 -0.02052825767042729 0.0
18.00059785169175 -0.02049451217572176 0.0
20.000663353333795 -0.02045683075249918 0.0
22.000728562715224 -0.020415224767907185 0.0
24.000793450744982 -0.020369706780275942 0.0
26.000857988372104 -0.020320290537222556 0.0
28.00092214659286 -0.02026699097343419 0.0
30.00098589645599 -0.020209824208089047 0.0
32.00104920906584 -0.02014880754187015 0.0
34.00111205558892 -0.020083959453521264 0.0
36.00117440726038 -0.020015299595890157 0.0
38.00123623539048 -0.019942848791397776 0.0
40.001297511371604 -0.019866629026867758 0.0
42.001358206685566 -0.019786663447642995 0.0
44.00141829291142 -0.019702976350910756 0.0
46.00147774173365 -0.019615593178150266 0.0
48.0015365249509 -0.019524540506609785 0.0
50.00159461448506 -0.01942984603971265 0.0
52.00165198239088 -0.019331538596282907 0.0
54.00170860086608 -0.019229648098473783 0.0
56.00176444226182 -0.019124205558271653 0.0
58.00181947909378 -0.019015243062439457 0.0
60.0018736840535 -0.01890279375575316 0.0
62.00192703002026 -0.01878689182237305 0.0
64.001979490076 -0.01866757246518076 0.0
66.00203103751431 -0.018544871882900594 0.0
68.00208164584834 -0.01841882724481011 0.0
70.00213128883411 -0.01828947666282894 0.0
72.00217994047979 -0.018156859160763542 0.0
74.00222757505921 -0.018021014640464926 0.0
76.00227416712525 -0.017881983844640875 0.0
78.00231969152344 -0.01773980831604328 0.0
80.00236412340523 -0.0175945303527307 0.0
82.00240743824087 -0.017446192959082278 0.0
84.00244961183198 -0.017294839792212535 0.0
86.00249062032334 -0.01714051510340868 0.0
88.00253044021393 -0.016983263674177705 0.0
90.0025690483668 -0.016823130746454838 0.0
92.00260642201764 -0.01666016194648237 0.0
94.0026425387818 -0.0164944032018194 0.0
96.00267737665938 -0.016325900650888066 0.0
98.00271091403806 -0.016154700544397545 0.0
100.00274312969313 -0.015980849137911403 0.0
102.00277400278468 -0.015804392574737595 0.0
104.002803512851 -0.0156253767582155 0.0
106.00283163979809 -0.01544384721235443 0.0
108.00285836388419 -0.015259848929631226 0.0
110.00288366569869 -0.015073426204584068 0.0
112.00290752613577 -0.014884622451632388 0.0
114.00292992635991 -0.014693480005306467 0.0
116.00295084776391 -0.014500039900772664 0.0
118.00297027191765 -0.014304341632181887 0.0
120.00298818050592 -0.014106422885934188 0.0
122.00300455525523 -0.013906319245425357 0.0
124.00301937784589 -0.013704063863198382 0.0
126.00303262980846 -0.013499687095636878 0.0
128.0030442924078 -0.013293216094372642 0.0
130.0030543464934 -0.013084674347393375 0.0
132.00306277232198 -0.012874081161364577 0.0
134.0030695493815 -0.012661451074849601 0.0
136.0030746561538 -0.012446793189839999 0.0
138.0030780698453 -0.012230110406134021 0.0
140.0030797660695 -0.012011398539487196 0.0
142.0030797184742 -0.011790645299859723 0.0
144.00307789829785 -0.01156782910020029 0.0
146.00307427384425 -0.011342917658617564 0.0
148.00306880985357 -0.011115866346926814 0.0
150.003061466746 -0.010886616225623362 0.0
152.00305219970764 -0.01065509168820664 0.0
154.00304095757667 -0.010421197614864524 0.0
156.0030276814747 -0.010184815904523964 0.0
158.00301230311254 -0.009945801211807256 0.0
160.00299474267337 -0.009703975656485958 0.0
162.00297490613858 -0.009459122190000845 0.0
164.00295268187693 -0.009210976184806041 0.0
166.00292793623743 -0.00895921463928056 0.0
168.00290050778432 -0.008703442134098162 0.0
170.0028701996418 -0.008443172286434436 0.0
172.00283676916848 -0.008177802843373832 0.0
174.00279991377155 -0.007906581591424338 0.0
176.002759251018 -0.007628558670867273 0.0
178.00271429007617 -0.007342518197099122 0.0
180.0026643895863 -0.007046877252401942 0.0
182.00260869335025 -0.006739531795357891 0.0
184.0025460287575 -0.006417609845915553 0.0
186.0024747352436 -0.006077066064548729 0.0
188.00239237218094 -0.005711913618839773 0.0
190.0022950780395 -0.005312991394398018 0.0
192.00217653171134 -0.004863823441524231 0.0
194.00202253423208 -0.004339250407725344 0.0
196.00180465743531 -0.003646557790761512 0.0
198.00134798372557 -0.0027835291035481686 0.0
200.00106549455964 1.9980416480756562 0.0
200.00113873807598 3.997182152730155 0.0
200.00120278245 5.996698571209718 0.0
200.00118226416913 7.996353205995775 0.0
200.00112890934696 9.996085254627966 0.0
200.00105276901155 11.995865549030562 0.0
200.00096175151467 13.99567949243087 0.0
200.00085999258442 15.995518268735088 0.0
200.00075020841317 17.995376219036775 0.0
200.00063420651395 19.99524947671141 0.0
200.0005132559898 21.99513528967245 0.0
200.00038827229307 23.995031631445816 0.0
200.00025993094226 25.99493696855301 0.0
200.00012873799074 27.994850113456852 0.0
199.99999507627754 29.994770128026754 0.0
199.99985923678273 31.99469625799801 0.0
199.9997214405798 33.99462788721129 0.0
199.99958185462103 35.994564504860435 0.0
199.99944060336333 37.994505681583306 0.0
199.9992977775179 39.99445105164019 0.0
199.99915344076794 41.994400299421265 0.0
199.999007635024 43.99435314907098 0.0
199.9988603846122 45.994309356396634 0.0
199.99871169967335 47.99426870247574 0.0
199.99856157897383 49.99423098854382 0.0
199.99841001227682 51.99419603185846 0.0
199.9982569823847 53.994163662316716 0.0
199.9981024669386 55.994133719659324 0.0
199.997946440043 57.99410605113729 0.0
199.99778887376948 59.9940805095464 0.0
199.99762973958687 61.99405695155871 0.0
199.99746900975742 63.99403523629974 0.0
199.99730665873588 65.99401522413108 0.0
199.99714266460677 67.99399677557861 0.0
199.99697701059418 69.99397975047808 0.0
199.9968096866804 71.99396400723084 0.0
199.99664069137157 73.99394940222759 0.0
199.9964700336525 75.9939357894461 0.0
199.99629773517685 77.9939230202583 0.0
199.99612383274396 79.99391094350385 0.0
199.99594838111724 81.99389940592285 0.0
199.9957714562382 83.9938882530928 0.0
199.99559315887842 85.99387733109963 0.0
199.99541361872906 87.99386648931346 0.0
199.9952329988089 89.99385558488956 0.0
199.99505149975056 91.99384449007292 0.0
199.99486936260482 93.99383310427736 0.0
199.99468686589682 95.99382137455916 0.0
199.99450430267146 97.9938093297949 0.0
197.9943178016527 99.99361477014692 0.0
195.99431356074007 99.99343255819859 0.0
193.9943090053092 99.99325027863705 0.0
191.99430410837408 99.9930676371336 0.0
189.9942989267118 99.99288435466026 0.0
187.99429356668938 99.99270019186358 0.0
185.99428816336516 99.99251495331922 0.0
183.99428286770683 99.99232848581167 0.0
181.99427783842066 99.99214067487914 0.0
179.99427323649903 99.9919514409941 0.0
177.99426922145935 99.99176073584594 0.0
175.9942659486903 99.99156853887591 0.0
173.99426356755427 99.9913748540976 0.0
171.9942622200307 99.99117970719374 0.0
169.99426203975705 99.99098314286668 0.0
167.99426315137447 99.9907852224182 0.0
165.99426567011093 99.99058602153616 0.0
163.99426970155523 99.99038562826948 0.0
161.99427534158534 99.99018414117579 0.0
159.99428267642298 99.9899816676289 0.0
157.99429178279283 99.98977832227577 0.0
155.9943027281651 99.98957422563387 0.0
153.9943155710691 99.98936950282099 0.0
151.99433036145925 99.98916428241017 0.0
149.99434714112465 99.98895869540316 0.0
147.9943659441294 99.98875287431534 0.0
145.99438679727467 99.98854695236591 0.0
143.99440972057374 99.98834106276641 0.0
141.99443472773203 99.9881353381012 0.0
139.994461826627 99.98792990979311 0.0
137.9944910197808 99.98772490764772 0.0
135.99452230482197 99.98752045946979 0.0
133.99455567493177 99.98731669074533 0.0
131.994591119273 99.98711372438301 0.0
129.9946286233975 99.98691168050902 0.0
127.99466816963157 99.98671067630956 0.0
125.99470973743075 99.9865108259152 0.0
123.99475330373748 99.9863122403225 0.0
121.99479884328436 99.98611502734734 0.0
119.99484632887695 99.98591929160618 0.0
117.99489573166413 99.9857251345207 0.0
115.99494702138047 99.98553265434222 0.0
113.99500016656543 99.98534194619248 0.0
111.99505513476241 99.98515310211776 0.0
109.99511189269627 99.98496621115369 0.0
107.99517040643246 99.98478135939806 0.0
105.99523064151813 99.98459863008996 0.0
103.99529256310663 99.98441810369309 0.0
101.99535613606669 99.98423985798159 0.0
99.99542132507761 99.98406396812751 0.0
97.99548809471158 99.98389050678819 0.0
95.99555640950406 99.98371954419292 0.0
93.99562623401404 99.98355114822822 0.0
91.99569753287432 99.98338538452057 0.0
89.9957702708336 99.98322231651684 0.0
87.9958444127906 99.9830620055613 0.0
85.99591992382202 99.98290451096935 0.0
83.99599676920374 99.98274989009784 0.0
81.99607491442767 99.98259819841132 0.0
79.99615432521334 99.98244948954489 0.0
77.99623496751606 99.98230381536295 0.0
75.99631680753127 99.9821612260144 0.0
73.99639981169634 99.98202176998402 0.0
71.99648394668468 99.9818854941403 0.0
69.99656917940945 99.9817524437798 0.0
67.9966554770294 99.98162266266809 0.0
65.99674280692327 99.98149619307759 0.0
63.996831136690076 99.98137307582228 0.0
61.99692043414187 99.98125335028956 0.0
59.99701066729491 99.9811370544694 0.0
57.99710180436087 99.98102422498093 0.0
55.99719381373735 99.98091489709657 0.0
53.9972866639984 99.9808091047641 0.0
51.9973803238851 99.98070688062647 0.0
49.99747476229574 99.98060825603979 0.0
47.997569948276514 99.98051326108953 0.0
45.99766585101237 99.98042192460508 0.0
43.997762439817784 99.9803342741728 0.0
41.99785968412804 99.98025033614769 0.0
39.997957553490906 99.98017013566383 0.0
37.99805601755832 99.98009369664358 0.0
35.99815504607864 99.9800210418059 0.0
33.99825460888929 99.97995219267357 0.0
31.99835467590954 99.97988716957958 0.0
29.998455217133742 99.97982599167288 0.0
[...]
POINT_DATA 5151
SCALARS DISPL_X float 1
LOOKUP_TABLE default
0.0
0.0
-0.1324896364456135
0.0
0.0015590919336889405
0.003117500630622745
0.0046745429297877835
0.006229535822229265
0.007781796528522521
0.009330642577972415
0.010875391890116213
0.012415362859105931
0.01394987444154223
0.015478246248333528
0.016999798641144336
0.01851385283399982
0.020019731000603846
0.02151675638792152
0.023004253436565866
0.024481547908512917
0.0259479670226652
0.027402839598748494
0.028845496210011243
0.030275269345164765
0.031691493579965924
0.033093505758804945
0.03448064518660785
0.035852253831309355
0.03720767653708289
0.03854626124843684
0.039867359245201545
0.04117032538832585
0.04245451837629187
0.04371930101182403
0.04496404047842829
0.04618810862612855
0.0473908822655848
0.048571743469581166
0.04973007988065316
0.05086528502334782
0.051976758619364224
0.05306390690350596
0.054126142938046594
0.05516288692274179
0.0561735664973243
0.05715761703287287
0.058114481907970555
0.059043612765035905
0.05994446974163056
0.060816521670916085
0.06165924624472603
0.06247213013195218
0.06325466904408664
0.0640063677388112
0.06472673995146448
0.06541530824302355
0.06607160375189021
0.06669516583523764
0.06728554158391198
0.06784228519285543
0.06836495716664709
0.06885312333697875
0.06930635366559582
0.069724220802307
0.07010629836294772
0.07045215888646647
0.07076137142332878
0.07103349869887172
0.07126809378463936
0.07146469619756315
0.07162282733034703
0.07174198509562471
0.07182163764013225
0.07186121595154976
0.07186010513757764
0.07181763410115355
0.07173306326332535
0.07160556989042798
0.07143423045691497
0.07121799930825132
0.07095568266375832
0.0706459066942497
0.07028707799015815
0.06987733415284031
0.06941448141976415
0.06889591505799707
0.06831851654913809
0.06767851905338956
0.06697132880642603
0.06619128417213971
0.06533132465683528
0.06438252681904658
0.06333343792011405
0.06216909290253961
0.060869513804273884
0.05940733971889266
0.057743824140728275
0.05582201908822028
0.053551822198532474
0.050785740953124804
0.04719246618327505
0.042108674002258685
0.03145295385117246
0.024861539725257772
0.02657055510600778
0.028064923833500052
0.02758616394637099
0.026341218096019695
0.02456461026957934
0.022440868675514935
0.020066493636585695
0.01750486297385362
0.014798151991960839
0.011975973095068423
0.00905968683837508
0.0060650553191882745
0.0030038864506254266
-0.00011488685711490471
-0.003284475069832148
-0.006499719804553322
-0.009756725509461203
-0.013052588189401585
-0.01638519124852945
-0.019753048747991837
-0.02315518277378328
-0.026591025715490775
-0.03006034095530007
-0.033563157276988685
-0.03709971354054528
-0.04067041102391701
-0.044275771432280245
-0.047916398996567314
-0.051592945378762925
-0.05530607630619952
-0.05905643899369152
-0.06284462949614558
-0.06667115917526234
-0.07053641946891265
-0.07444064412394359
-0.0783838679966199
-0.08236588144163813
-0.08638617920696537
-0.09044390264084792
-0.09453777393098783
-0.09866602110849537
-0.10282629283654907
-0.1070155629887945
-0.11123002779285575
-0.11546500582027551
-0.119714872554365
-0.12397312907439303
-0.12823293766583135
-0.1325846284353695
-0.13268358339438774
-0.13278987711306478
-0.13290413926341615
-0.1330250450505417
-0.13315011257158565
-0.13327619046783346
-0.13339975616014504
-0.13351710650201362
-0.13362448500557023
-0.13371816959537333
-0.13379453453987963
-0.13385009471235199
-0.1338815372609476
-0.13388574397679182
-0.13385980656862992
-0.13380103638257057
-0.13370696967983875
-0.1335753693092615
-0.1334042234280169
-0.13319174179955548
-0.1329363501101552
-0.13263668268173878
-0.1322915739097445
-0.13190004871549987
-0.13146131226923458
-0.13097473921044653
-0.13043986256550713
-0.12985636253744987
-0.129224055319471
-0.1285428820616278
-0.1278128980995432
-0.1270342625346558
-0.12620722823775454
-0.12533213233127427
-0.12440938719114265
-0.12343947199587321
-0.1224229248391023
-0.12136033541175373
-0.12025233825155421
-0.11909960655049719
-0.11790284650502228
-0.1166627921890388
-0.1153802009263376
-0.11405584913629638
-0.11269052862497353
-0.11128504329258554
-0.10984020622787477
-0.10835683715989226
-0.10683576023815733
-0.10527780211292126
-0.10368379028830449
-0.10205455172229812
-0.10039091164899719
-0.0986936925999039
-0.0969637136026571
-0.0952017895370889
-0.09340873063004765
-0.09158534207193618
-0.0897324237393774
-0.08785077000982558
-0.08594116965528527
-0.08400440580355832
-0.08204125595662476
-0.0800524920568918
-0.0780388805930464
-0.07600118273816707
-0.07394015451371035
-0.07185654697369416
-0.0697511064041574
-0.06762457453363144
-0.06547768875094678
-0.06331118232723051
-0.06112578463942967
-0.05892222139312031
-0.056701214842742056
-0.054463484007733085
-0.05220974488333987
-0.04994071064513694
-0.047657091846518465
-0.045359596608628816
-0.04304893080236871
-0.04072579822226853
-0.038390900752147884
-0.036044938522592385
-0.03368861006037667
-0.031322612430042696
-0.02894764136790587
-0.02656439140882847
-0.02417355600614156
-0.021775827645136542
-0.019371897950583
-0.016962457788754055
-0.014548197364462712
-0.012129806313631739
-0.009707973791930245
-0.0072833885600219195
-0.004856739065981695
-0.0024287135254366446
0.0
0.0
0.0
0.0
0.0
0.0
0.0
0.0
0.0
0.0
0.0
0.0
0.0
0.0
0.0
0.0
0.0
0.0
0.0
0.0
0.0
0.0
0.0
0.0
0.0
0.0
0.0
0.0
0.0
0.0
0.0
0.0
0.0
0.0
0.0
0.0
0.0
0.0
0.0
0.0
0.0
0.0
0.0
0.0
0.0
0.0
0.0
0.0
0.0
0.001466910762723114
0.0013762565656614697
0.001287064578827391
0.0011992702886099986
0.0011128094151370744
0.0010276178941289677
0.0009436318572732446
0.0008607876114485627
0.0007790216171143426
0.0006982704661699226
0.0006184708595694988
0.0005395595849660763
0.00046147349463860157
0.00038414948394058197
0.0003075244704899046
0.00023153537430091253
0.00015611909904402166
8.1212514597718e-05
6.752441041985928e-06
-6.732436577748582e-05
-0.00014108122699851613
-0.0002145815517094555
-0.0002878888460518754
-0.00036106672039548426
-0.00043417889453409287
-0.0005072892008675311
-0.0005804615855487268
-0.0006537601075902282
-0.0007272489359377092
-0.0008009923445321061
-0.0008750547053939068
-0.000949500479781084
-0.0010243942074819553
-0.001099800494322974
-0.0011757839979791747
-0.0012524094121981611
-0.0013297414495580752
-0.0014078448228999555
-0.0014867842255872439
-0.0015666243107665921
-0.0016474296698192586
-0.001729264810211115
-0.0018121941329686622
-0.0018962819100253156
-0.001981592261703401
-0.0020681891346143264
-0.0021561362802782376
-0.002245497234783191
-0.0023363352998187975
0.002933166168161084
0.0027518854850846442
0.0025735290634833125
0.0023979678871665884
0.0022250734087543404
0.002054717513136951
0.0018867724779842994
0.001721110931963182
0.0015576058112973133
0.0013961303152769393
0.0012365578612934106
0.0010787620399440713
0.0009226165707173894
0.0007679952587337699
0.0006147719529826334
0.0004628205064580649
0.0003120147385618756
0.00016222840010529492
1.3335141206132589e-05
-0.0001347915176614763
-0.00028227821122934056
-0.00042925175142509127
-0.0005758391456203803
-0.0007221676110125881
-0.0008683645850405647
-0.0010145577317595756
-0.0011608749441392539
-0.0013074443422706197
-0.0014543942674968393
-0.0016018532725123355
-0.0017499501074983016
-0.0018988137023938905
-0.0020485731454302136
-0.002199357658081382
-0.0023512965666123696
-0.0025045192704423766
-0.002659155207566309
-0.002815333817310508
-0.002973184500732629
-0.0031328365790103917
-0.0032944192501980045
-0.0034580615447665805
-0.003623892280381055
-0.0037920400164053246
-0.003962633008662854
-0.004135799165019177
-0.004311666002392131
-0.004490360605824869
-0.0046720095902976705
0.004398110931273456
0.004126259179603727
0.0038587934216859385
0.0035955201609739907
0.003336246607465584
0.0030807806222711252
0.0028289306577764014
0.0025805056943919054
0.002335315174843284
0.00209316893691437
0.001853877145510098
0.0016172502248563586
0.001383098791603924
0.00115123358954988
0.0009214654266368628
0.0006936051148344999
0.00046746341345518984
0.00024285097640061788
1.9578303782670332e-05
-0.0002025443016948051
-0.00042370677324421853
-0.000644099313112074
-0.0008639124200611333
-0.0010833369110243526
-0.001302563936782021
-0.0015217849915570168
-0.0017411919164686362
-0.001960976896827368
-0.0021813324532920543
-0.002402451426955391
-0.002624526958462834
-0.00284775246131143
-0.003072321589517049
-0.0032984281998840754
-0.003526266309143329
-0.0037560300462873954
-0.003987913600463852
-0.00422211116484059
-0.00445881687690681
-0.00469822475572435
-0.004940528636697393
-0.005185922104483161
-0.005434598424722622
-0.005686750475326425
-0.005942570678108333
-0.006202250931617633
-0.006465982546075267
-0.006733956181374146
-0.00700636178915572
0.005861089912014396
0.005498750206132394
0.005142257745298926
0.004791354586352653
0.00444578373439075
0.00410528906769658
0.003769615256832581
0.003438507679227737
0.003111712330536192
0.002788975733988432
0.00247004484889329
0.0021546669793846875
0.0018425896844353668
0.001533560690090792
0.001227327804803907
0.0009236388386769149
0.0006222415273435699
0.0003228834611542136
2.5312020252794797e-05
-0.000270725683940706
-0.0005654828603791098
-0.0008592130827961679
-0.0011521703265499126
-0.0014446089976445128
-0.001736783953736074
-0.002028950516984155
-0.0023213644786705687
-0.002614282095561149
-0.002907960078043043
-0.0032026555701225668
-0.003498626121425295
-0.003796129651392351
-0.004095424405923138
-0.00439676890677562
-0.004700421894075528
-0.0050066422623723
-0.0053156889907195705
-0.005627821067329443
-0.005943297409416995
-0.006262376778918003
-0.006585317694835064
-0.006912378343040209
-0.007243816484437397
-0.007579889362464584
-0.007920853610992009
-0.008266965163751671
-0.008618479166506078
-0.008975649893241228
-0.009338730667736566
0.007321448189091549
0.006868731326038786
0.006423322313317678
0.005984898806897642
0.005553139658005367
0.005127724817407751
0.004708335232465919
0.004294652738631146
0.003886359946987084
0.0034831401293720574
0.003084677102535188
0.002690655112696343
0.0023007587217914773
0.0019146726965962155
0.001532081901827754
0.0011526711982328887
0.0007761253465785679
0.0004021289183683925
3.0366214020132204e-05
-0.00033947881085707993
-0.0007077226105103988
-0.0010746821049541278
-0.0014406747263432762
-0.001806018455490141
-0.002171031848285295
-0.002536034051853465
-0.002901344810346586
-0.0032672844603467144
-0.0036341739159198765
-0.004002334643428273
-0.004372088626276007
-0.004743758319830747
-0.005117666596832597
-0.005494136683675468
-0.005873492087998596
-0.006256056518130274
-0.006642153794977746
-0.007032107757046798
-0.007426242159354805
-0.007824880567088873
-0.008228346244948542
-0.008636962043203616
-0.009051050281594746
-0.009470932632299315
-0.009896930003283736
-0.010329362423459042
-0.010768548931156273
-0.011214807467529652
-0.011668454776587463
0.00877853113523527
0.008235575575317344
0.007701387655947738
0.007175580690632222
0.006657769441699627
0.00614757000267764
0.005644599672089094
0.005148476820688681
0.004658820754079017
0.004175251572554285
0.003697390029926994
0.0032248573929832295
0.0027572753031120576
0.0022942656415398787
0.0018354503994907137
0.0013804515544818927
0.0009288909538501703
0.0004803902064942136
3.4570583712869045e-05
-0.00040894707010299817
-0.0008505424162368552
-0.001290595689321131
-0.001729487753449034
-0.002167600146342844
-0.002605315111294809
-0.003043015616685043
-0.003481085362960312
-0.003919908777043816
-0.004359870994226821
-0.004801357827671477
-0.00524475572573521
-0.0056904517174042706
-0.006138833346208213
-0.00659028859307511
-0.007045205788645627
-0.007503973515693034
-0.007966980502355083
-0.008434615506991481
-0.008907267195577774
-0.009385324012649953
-0.009869174046921565
-0.010359204892805313
-0.010855803509186595
-0.011359356076914741
-0.011870247856594317
-0.012388863048379582
-0.012915584655594475
-0.013450794354114915
-0.013994872369562636
0.010231684494481207
0.009598656336488235
0.00897585462013396
0.00836282838834954
0.007759128394278554
0.007164306960217861
0.006577917826683741
0.005999515993980577
0.005428657558550778
0.0048648995462784355
0.004307799744799815
0.0037569165367537447
0.0032118087357764957
0.0026720354269142233
0.002137155812993403
0.001606729068359608
0.001080314201257211
0.0005574699259966209
3.7754545927583126e-05
-0.00047927415190317224
-0.0009940589896139003
-0.001507043478239625
-0.0020186718838239495
-0.002529389279421481
-0.003039641582683825
-0.0035498755788043665
-0.004060538928693831
-0.004572080162355177
-0.005084948657517719
-0.005599594603683492
-0.006116468951829682
-0.006636023350101449
-0.007158710065924064
-0.007684981895064842
-0.008215292058244988
-0.008750094086047109
-0.009289841692933957
-0.009834988641317672
-0.010385988596734645
-0.01094329497529832
-0.011507360784730292
-0.012078638460399877
-0.01265757969793703
-0.013244635284123939
-0.013840254927909804
-0.01444488709353681
-0.015058978837907225
-0.015682975654460942
-0.01631732132596622
0.011680254461961814
0.010957347412647169
0.010246124436894006
0.009546070393428622
0.008856672121625865
0.008177418275214794
0.007507799144883302
0.0068473064725235976
0.0061954332597460565
0.0055516735731604904
0.004915522348786621
0.00428647519781129
0.0036640282157612315
0.003047677797007196
0.0024369204563589254
0.0018312526593583498
0.0012301706627241948
0.0006331703662474026
3.9747177294827634e-05
-0.0005506041110841093
-0.0011383894275504443
-0.0017241155146564564
-0.0023082900051988446
-0.0028914214822611953
-0.0034740195225828234
-0.004056594723003699
-0.0046396587098472015
-0.005223724131207864
-0.005809304632217368
-0.0063969148134629585
-0.006987070172837024
-0.00758028703119701
-0.008177082442319943
-0.00877797408775094
-0.009383480157222828
-0.009994119215489433
-0.010610410056490778
-0.011232871545914184
-0.011862022453341897
-0.012498381275312276
-0.013142466050770005
-0.013794794170526838
-0.014455882182513237
-0.015126245594762307
-0.015806398678230898
-0.016496854271730338
-0.017198123591406614
-0.017910716047372544
-0.018635139070256483
0.013123587766705826
0.012311023104086532
0.011511598790803509
0.010724735603404591
0.009949856579749325
0.009186386825401826
0.008433753307776194
0.007691384641152351
0.006958710865547384
0.006235163222274448
0.005520173928864412
0.004813175955856862
0.0041136028077938
0.0034208883105757955
0.0027344664071593363
0.002053770963397717
0.0013782355856538039
0.0007072934516386179
4.0377155763408265e-05
-0.0006230814298867016
-0.0012836512779614599
-0.001941902310851382
-0.0025984054876115933
-0.0032537328722724093
-0.003908457683141948
-0.0045631543228287046
-0.0052183983888382185
-0.005874766664712445
-0.006532837091799187
-0.007193188721848641
-0.00785640165074857
-0.008523056933821944
-0.009193736483225134
-0.009869022948109325
-0.010549499578299612
-0.011235750072420374
-0.011928358411489181
-0.012627908679157054
-0.013334984869918031
-0.014050170686763815
-0.014774049329924871
-0.015507203278510353
-0.01625021406703423
-0.01700366205900118
-0.017768126219917815
-0.01854418389228253
-0.01933241057530418
-0.020133379712291267
-0.020947662488840828
0.014561031757933555
0.013659058287899194
0.012771679891971754
0.011898253383561444
0.011038138129412218
0.010190695826315863
0.009355290264527286
0.008531287081388412
0.007718053508509707
0.006914958115684773
0.00612137055453023
0.005336661304649338
0.004560201424922363
0.0037913623123243057
0.0030295154704672797
0.0022740322898655205
0.0015242838417195007
0.0007796406868241172
3.947270101544312e-05
-0.0006968510816287146
-0.0014299626067479719
-0.002160494917961675
-0.0028890822546987294
-0.0036163601290229953
-0.004342965381028933
-0.005069536212521932
-0.005796712198830407
-0.00652513427872458
-0.0072554447225435525
-0.007988287078752085
-0.008724306099272217
-0.009464147644054241
-0.010208458565477016
-0.010957886573302288
-0.011713080081005807
-0.012474688034499542
-0.01324335972435948
-0.014019744582848555
-0.014804491967178868
-0.015598250930633328
-0.016401669983346308
-0.017215396844736195
-0.018040078189782142
-0.01887635939154597
-0.019724884262557175
-0.020586294797897378
-0.021461230923044285
-0.02235033024975674
-0.02325422784350307
0.015991934495330512
0.015000828500967948
0.014025770550833963
0.01306605363280569
0.012120973592545523
0.011189828877873297
0.010271920268901343
0.009366550597839422
0.008473024462196069
0.007590647934900533
0.00671872827466089
0.005856573639654486
0.005003492807420847
0.004158794903601892
0.003321789141943087
0.002491784577742703
0.001668089876715032
0.0008500131010130743
3.6861513948818255e-05
-0.0007720585952743293
-0.0015774420656465443
-0.0023799849963335976
-0.0031803848557699693
-0.0039793405672575045
-0.004777552570620276
-0.0055757228596208614
-0.006374554994981959
-0.007174754092999705
-0.007977026789864795
-0.008782081181939523
-0.00959062674236806
-0.010403374214524275
-0.011221035482934908
-0.012044323422461447
-0.012873951726626007
-0.013710634716174095
-0.01455508712907513
-0.015408023893350954
-0.01627015988429236
-0.017142209667815735
-0.018024887231912288
-0.01891890570835185
-0.019824977087032535
-0.020743811925596836
-0.02167611905717997
-0.02262260529940696
-0.023583975168006997
-0.024560930598668932
-0.025554170681017147
0.017415644843777688
0.01633571002673382
0.015273274256077921
0.014227566852065644
0.013197820310619437
0.012183270012388173
0.011183153916760967
0.010196712245158196
0.009223187157711525
0.008261822427216618
0.007311863114002715
0.006372555245114777
0.005443145500950679
0.004522880912238037
0.0036110085699788998
0.002706775350737602
0.0018094276593965677
0.0009182111912639636
3.237071518501674e-05
-0.000848850120936769
-0.00172620896096077
-0.0026004648866995066
-0.003472378538649017
-0.004342712210626008
-0.005212229917849897
-0.00608169743816686
-0.006951882326266368
-0.007823553900888309
-0.008697483205157104
-0.009574442940316287
-0.01045520737327366
-0.011340552218499255
-0.012231254494958406
-0.013128092358916259
-0.014031844913555632
-0.01494329199657142
-0.01586321394702158
-0.016792391352913057
-0.01773160478119143
-0.018681634492005834
-0.01964326013934156
-0.020617260460347498
-0.021604412955932253
-0.02260549356546347
-0.02362127633867909
-0.02465253310819817
-0.025700033166309803
-0.02676454295000632
-0.027846825738520126
0.01883151257300402
0.017663079986124774
0.016513595256004272
0.015382224215443448
0.014268136205138643
0.013170503744138053
0.012088502184595899
0.01102130935557602
0.009968105200415649
0.008928071411900466
0.00790039106922933
0.006884248280467728
0.0058788278339052
0.004883314861439847
0.0038968945168304315
0.002918751671371626
0.001948070629271954
0.0009840348647480613
2.582678259077968e-05
-0.0009273724963073146
-0.001876383323149199
-0.002822027682137197
-0.003765129323222517
-0.004706513866050753
-0.0056470088746315315
-0.006587443902433895
-0.007528650507769045
-0.008471462239475027
-0.009416714593061962
-0.010365244937620408
-0.011317892413933014
-0.012275497804369179
-0.013238903375285632
-0.01420895269281432
-0.015186490413030971
-0.016172362047727755
-0.01716741370713886
-0.018172491821176025
-0.019188442840934565
-0.020216112922453282
-0.02125634759494639
-0.02230999141598382
-0.023377887616368474
-0.02446087773774725
-0.025559801266296645
-0.0266754952661376
-0.02780879401646212
-0.028960528656681066
-0.03013152684423541
0.020238888462618468
0.01898231643301164
0.017746138643606253
0.016529457644330968
0.015331379840404145
0.014151015120565344
0.01298747646912243
0.011839879567010127
0.010707342386783001
0.009588984786168459
0.008483928104500498
0.007391294766039102
0.006310207893861214
0.005239790937686119
0.004179167318680752
0.0031274600939750876
0.002083791643314738
0.0010472833799820482
1.7055487836285377e-05
-0.0010077733139663794
-0.002028085977204396
-0.0030447673007239144
-0.004058704075591302
-0.005070785198607979
-0.006081901753719487
-0.007092947061030712
-0.008104816693308765
-0.009118408460008245
-0.010134622359006914
-0.01115436049638121
-0.012178526974694927