# vtk DataFile Version 2.0
mesh vtk view
ASCII
DATASET UNSTRUCTURED_GRID
POINTS 5151 double
0.0 0.03442593049486421 0.0
200.0 0.0 0.0
200.0094635454604 100.01033814137533 0.0
0.0 100.03436802165804 0.0
1.999888636282539 0.034422610131705354 0.0
3.9997773213678367 0.03441265004104206 0.0
5.999666104052893 0.03439605321921288 0.0
7.9995550331236585 0.03437282465977422 0.0
9.999444157350318 0.034342971352980034 0.0
11.999333525481276 0.034306502285034866 0.0
13.999223186237202 0.034263428437102304 0.0
15.999113188304008 0.0342137627840455 0.0
17.999003580327003 0.03415752029286961 0.0
19.998894410905415 0.03409471792083198 0.0
21.99878572858481 0.034025374613178644 0.0
23.998677581849666 0.03394951130045991 0.0
25.99857001911489 0.033867150895370936 0.0
27.998463088719955 0.033778318289056995 0.0
29.998356838920383 0.03368304034681509 0.0
31.998251317876296 0.03358134590311693 0.0
33.998146573643474 0.03347326575586878 0.0
35.99804265416338 0.033358832659816935 0.0
37.99793960725219 0.033238081318996304 0.0
39.9978374805893 0.03311104837811294 0.0
41.997736321705 0.032977772412738325 0.0
43.99763617796756 0.0328382939181846 0.0
45.99753709656947 0.03269265529691712 0.0
47.997439124513036 0.03254090084434965 0.0
49.99734230859511 0.03238307673285443 0.0
51.997246695391055 0.03221923099380485 0.0
53.997152331238055 0.03204941349745631 0.0
55.99705926221744 0.03187367593045277 0.0
57.99696753413649 0.03169207177073244 0.0
59.996877192509295 0.0315046562595886 0.0
61.99678828253701 0.03131148637062176 0.0
63.99670084909016 0.031112620775301275 0.0
65.99661493668397 0.030908119804834336 0.0
67.99653058945181 0.030698045408016853 0.0
69.99644785113347 0.03048246110471491 0.0
71.99636676504855 0.03026143193460591 0.0
73.99628737407414 0.03003502440077488 0.0
75.99620972062199 0.0298033064077348 0.0
77.99613384661623 0.02956634719340548 0.0
79.9960597934712 0.029324217254551168 0.0
81.99598760206973 0.02907698826513714 0.0
83.9959173127425 0.0288247329870209 0.0
85.99584896524814 0.028567525172347803 0.0
87.99578259875507 0.028305439456962848 0.0
89.9957182518249 0.0280385512440914 0.0
91.99565596239809 0.027766936577470622 0.0
93.9955957677824 0.02749067200303234 0.0
95.99553770464429 0.02720983441814678 0.0
97.99548180900445 0.026924500907329247 0.0
99.99542811623728 0.026634748563185682 0.0
101.99537666107594 0.02634065429122933 0.0
103.99532747762323 0.026042294597025843 0.0
105.99528059936931 0.025739745353924055 0.0
107.99523605921729 0.025433081549385377 0.0
109.99519388951767 0.02512237700764012 0.0
111.99515412211373 0.024807704086053983 0.0
113.99511678839801 0.02448913334217745 0.0
115.99508191938254 0.024166733167954448 0.0
117.99504954578444 0.02384056938696982 0.0
119.99501969812853 0.02351070480989032 0.0
121.99499240687089 0.023177198742375598 0.0
123.99496770254457 0.022840106438663972 0.0
125.9949456159315 0.022499478492728132 0.0
127.99492617827077 0.02215536015728774 0.0
129.99490942148944 0.021807790578988965 0.0
131.99489537847083 0.021456801935607634 0.0
133.9948840834009 0.021102418458082674 0.0
135.99487557214286 0.020744655316400004 0.0
137.9948698826864 0.020383517343556704 0.0
139.99486705567506 0.020018997565811998 0.0
141.9948671350299 0.019651075499766205 0.0
143.99487016868628 0.01927971516700049 0.0
145.9948762094713 0.018904862764362613 0.0
147.99488531615182 0.018526443911544694 0.0
149.99489755469378 0.01814436037603894 0.0
151.99491299978672 0.01775848614701107 0.0
153.9949317367008 0.017368662691440877 0.0
155.99495386356676 0.01697469317420661 0.0
157.99497949419938 0.0165763353530121 0.0
159.99500876162733 0.016173292760809935 0.0
161.99504182254773 0.015765203650001412 0.0
163.99507886301316 0.015351626974676739 0.0
165.99512010577467 0.014932024398800937 0.0
167.99516581989252 0.014505736890163606 0.0
169.9952163334925 0.014071953810724064 0.0
171.99527205097738 0.013629671405623055 0.0
173.99533347666792 0.013177635985707231 0.0
175.99540124795297 0.012714264451445459 0.0
177.9954761828853 0.01223753032849854 0.0
179.99555935039746 0.011744795420669906 0.0
181.9956521774869 0.011232552992263153 0.0
183.99575661850392 0.010696016409859257 0.0
185.99587544105609 0.01012844344091455 0.0
187.99601271285655 0.009519856031399624 0.0
189.99617486978826 0.008854985657330032 0.0
191.99637244703098 0.008106372402540385 0.0
193.99662910952543 0.007232084012875576 0.0
195.99699223754936 0.006077596317935855 0.0
197.99775336042828 0.004639215172580281 0.0
199.99822417573392 2.003263919852986 0.0
199.99810210320672 4.004696412073879 0.0
199.9979953625833 6.005502381251979 0.0
199.9980295597181 8.00607798992277 0.0
199.99811848442172 10.006524575517588 0.0
199.99824538498075 12.006890751494714 0.0
199.9983970808089 14.007200845802576 0.0
199.99856667902597 16.007469551934534 0.0
199.99874965264473 18.007706301404045 0.0
199.99894298914344 20.0079175385853 0.0
199.99914457335035 22.00810785028922 0.0
199.99935287951155 24.008280613972577 0.0
199.99956678176292 26.008438385432907 0.0
199.9997854366821 28.008583143898818 0.0
200.0000082062041 30.008716452921306 0.0
200.00023460536212 32.00883956961174 0.0
200.00046426570032 34.00895352091405 0.0
200.00069690896495 36.00905915815671 0.0
200.0009323277278 38.00915719694319 0.0
200.00117037080346 40.00924824683967 0.0
200.00141093205343 42.00933283386245 0.0
200.0016539416267 44.009411417770835 0.0
200.00189935897967 46.009484405552676 0.0
200.0021471672111 48.00955216207873 0.0
200.00239736837693 50.0096150186232 0.0
200.0026499795386 52.00967327975673 0.0
200.00290502935886 54.00972722898425 0.0
200.0031625551023 56.00977713340446 0.0
200.0034225999283 58.0098232475991 0.0
200.0036852103842 60.0098658169085 0.0
200.00395043402187 62.00990508021263 0.0
200.00421831707098 64.00994127230894 0.0
200.00448890210686 66.00997462595201 0.0
200.00476222565538 68.01000537356863 0.0
200.00503831567636 70.01003374876541 0.0
200.005317188866 72.01005998753993 0.0
200.00559884771405 74.01008432924124 0.0
200.00588327724583 76.01010701723958 0.0
200.00617044137192 78.01012829924842 0.0
200.00646027876007 80.01014842720171 0.0
200.00675269813792 82.01016765653257 0.0
200.00704757293633 84.0101862446118 0.0
200.00734473520262 86.01020444796295 0.0
200.00764396878492 88.01022251763574 0.0
200.0079450019852 90.0102406917048 0.0
200.00824750041573 92.01025918309502 0.0
200.00855106232532 94.01027815945015 0.0
200.00885522350532 96.01029770900962 0.0
200.00915949554755 98.01031778364599 0.0
198.00947033061675 100.01064204975512 0.0
196.00947739884228 100.01094573633567 0.0
194.00948499126497 100.01124953560492 0.0
192.00949315286132 100.01155393811067 0.0
190.00950178900328 100.01185940889955 0.0
188.00951072241185 100.01216634689403 0.0
186.00951972799007 100.01247507780131 0.0
184.00952855412513 100.01278585698056 0.0
182.0095369363066 100.01309887520144 0.0
180.00954460621392 100.01341426500983 0.0
178.00955129798453 100.01373210692343 0.0
176.00955675263774 100.0140524352068 0.0
174.0095607212357 100.01437524317066 0.0
172.00956296714622 100.01470048801043 0.0
170.00956326764012 100.01502809522219 0.0
168.0095614149823 100.01535796263633 0.0
166.0095572171261 100.01568996410641 0.0
164.00955049809008 100.0160239528842 0.0
162.00954109807782 100.01635976470702 0.0
160.0095288733862 100.01669722061851 0.0
158.00951369614134 100.01703612954039 0.0
156.009495453892 100.0173762906102 0.0
154.00947404908987 100.01771749529836 0.0
152.0094493984775 100.01805952931637 0.0
150.0094214324064 100.01840217432807 0.0
148.00939009410303 100.01874520947445 0.0
146.00935533889873 100.01908841272349 0.0
144.00931713343837 100.01943156205598 0.0
142.00927545487917 100.019774436498 0.0
140.0092302900921 100.0201168170115 0.0
138.00918163487356 100.0204584872538 0.0
136.0091294931762 100.02079923421701 0.0
134.0090738763643 100.02113884875779 0.0
132.0090148025002 100.02147712602833 0.0
130.00895229566393 100.0218138658183 0.0
128.00888638531055 100.02214887281741 0.0
126.00881710565886 100.02248195680798 0.0
124.00874449514765 100.02281293279583 0.0
122.00866859590285 100.02314162108777 0.0
120.00858945324855 100.02346784732303 0.0
118.00850711526991 100.0237914424655 0.0
116.00842163240961 100.02411224276295 0.0
114.00833305710132 100.0244300896792 0.0
112.0082414434397 100.02474482980372 0.0
110.00814684688328 100.02505631474385 0.0
108.00804932398961 100.02536440100324 0.0
106.00794893218016 100.02566894985006 0.0
104.00784572953268 100.0259698271782 0.0
102.00773977459924 100.02626690336402 0.0
100.00763112624769 100.02656005312082 0.0
98.00751984352448 100.02684915535303 0.0
96.00740598553702 100.02713409301178 0.0
94.00728961135373 100.02741475295298 0.0
92.00717077991992 100.02769102579904 0.0
90.00704954998787 100.02796280580526 0.0
88.00692598005948 100.02822999073118 0.0
86.00680012834054 100.02849248171775 0.0
84.00667205270433 100.02875018317027 0.0
82.00654181066446 100.0290030026478 0.0
80.00640945935498 100.02925085075852 0.0
78.00627505551718 100.02949364106175 0.0
76.00613865549187 100.029731289976 0.0
74.00600031521675 100.0299637166933 0.0
72.00586009022258 100.03019084309949 0.0
70.00571803564453 100.03041259370033 0.0
68.00557420624004 100.03062889555319 0.0
66.00542865637905 100.03083967820402 0.0
64.00528144006307 100.03104487362954 0.0
62.005132610938865 100.03124441618407 0.0
60.00498222231253 100.03143824255099 0.0
58.00483032716471 100.03162629169846 0.0
56.004676978166025 100.03180850483905 0.0
54.004522227692945 100.03198482539317 0.0
52.004366127843895 100.03215519895589 0.0
50.00420873045495 100.03231957326703 0.0
48.00405008711569 100.03247789818413 0.0
46.003890249184686 100.0326301256582 0.0
44.003729267804445 100.032776209712 0.0
42.00356719391605 100.03291610642052 0.0
40.00340407827337 100.03304977389362 0.0
38.00323997145645 100.03317717226071 0.0
36.00307492388462 100.03329826365683 0.0
34.002908985828974 100.03341301221073 0.0
32.00274220742407 100.03352138403403 0.0
30.002574638679178 100.03362334721187 0.0
[...]
POINT_DATA 5151
SCALARS DISPL_X float 1
LOOKUP_TABLE default
0.0
0.0
-0.044163212148537835
0.0
0.0005196973112296468
0.0010391668768742483
0.0015581809765959278
0.0020765119407430885
0.002593932176174174
0.0031102141926574716
0.0036251306300387376
0.004138454286368644
0.004649958147180743
0.005159415416111176
0.005666599547048112
0.006171284277999941
0.006673243666867949
0.007172252129307173
0.007668084478855288
0.008160515969504305
0.0086493223408884
0.009134279866249498
0.009615165403337081
0.010091756448388256
0.010563831193321976
0.011031168586268316
0.01149354839553595
0.011950751277103119
0.012402558845694295
0.012848753749478945
0.013289119748400514
0.013723441796108618
0.014151506125430622
0.014573100337274677
0.014988013492809428
0.015396036208709517
0.015796960755194933
0.016190581156527054
0.01657669329355105
0.016955095007782608
0.017325586206454743
0.01768796896783532
0.01804204764601553
0.018387628974247262
0.018724522165774766
0.019052539010957624
0.019371493969323517
0.019681204255011967
0.019981489913876854
0.02027217389030536
0.020553082081575344
0.020824043377317393
0.021084889681362212
0.021335455912937066
0.021575579983821494
0.02180510274767452
0.022023867917296738
0.022231721945079216
0.022428513861303994
0.02261409506428514
0.022788319055549032
0.02295104111232625
0.02310211788853194
0.023241406934102333
0.023368766120982574
0.02348405296215549
0.02358712380777626
0.02367783289962391
0.02375603126154645
0.023821565399187717
0.023874275776782344
0.023913995031874902
0.023940545880044083
0.023953738650516587
0.023953368379192545
0.023939211367051183
0.023911021087775115
0.023868523296809326
0.02381141015230499
0.023739333102750438
0.023651894221252773
0.023548635564749898
0.023429025996719387
0.023292444717613436
0.023138160473254718
0.022965305019332357
0.0227728388497127
0.022559506351129854
0.02232377626880868
0.022063761390713237
0.021777108218945095
0.021460842273015528
0.02111114597337135
0.0207230309675132
0.02028983793475796
0.01980244657296422
0.01924794138024276
0.018607339696073425
0.017850607399510825
0.016928580317708268
0.015730822061091682
0.014036224667419562
0.01048431795039082
0.008287179908419257
0.008856851702002594
0.009354974611166684
0.009195387982123663
0.008780406032006565
0.008188203423193112
0.007480289558504979
0.006688831212195232
0.005834954324617872
0.004932717330653613
0.003991991031689474
0.0030198956127916936
0.0020216851063960917
0.001001295483541809
-3.829561903830157e-05
-0.0010948250232773826
-0.0021665732681844406
-0.0032522418364870674
-0.004350862729800529
-0.005461730416176484
-0.0065843495826639455
-0.00771839425792776
-0.008863675238496925
-0.01002011365176669
-0.011187719092329561
-0.01236657118018176
-0.013556803674639004
-0.01475859047742675
-0.015972132998855772
-0.01719764845958764
-0.018435358768733173
-0.01968547966456384
-0.020948209832048526
-0.022223719725087448
-0.023512139822970884
-0.02481354804131453
-0.026127955998873298
-0.027455293813879376
-0.028795393068988456
-0.030147967546949306
-0.031512591310329276
-0.03288867370283179
-0.034275430945516355
-0.035671854329598164
-0.037076675930951916
-0.03848833527342517
-0.03990495751812167
-0.041324376358131014
-0.042744312555277116
-0.044194876145123164
-0.044227861131462584
-0.04426329237102159
-0.04430137975447205
-0.0443416816835139
-0.04438337085719522
-0.04442539682261115
-0.04446658538671502
-0.044505702167337874
-0.044541495001856744
-0.04457272319845778
-0.044598178179959876
-0.04461669823745067
-0.044627179086982535
-0.04462858132559727
-0.04461993552287664
-0.04460034546085686
-0.04456898989327958
-0.044525123103087164
-0.044468074476005634
-0.044397247266518496
-0.044312116703385064
-0.04421222756057959
-0.04409719130324817
-0.04396668290516662
-0.04382043742307819
-0.043658246403482176
-0.043479954188502375
-0.04328545417914996
-0.04307468510649034
-0.042847627353875935
-0.042604299366514393
-0.0423447541782186
-0.04206907607925151
-0.04177737744375809
-0.041469795730380885
-0.04114649066529107
-0.0408076416130341
-0.04045344513725124
-0.04008411275051807
-0.03969986885016573
-0.039300948835007427
-0.038887597396346264
-0.03846006697544587
-0.03801861637876546
-0.037563509541657845
-0.03709501443086185
-0.03661340207595826
-0.03611894571996409
-0.035611920079385774
-0.035092600704307086
-0.03456126342943483
-0.034018183907432706
-0.033463637216332394
-0.0328978975333013
-0.032321237867552366
-0.0317339298456963
-0.031136243543349217
-0.03052844735731206
-0.029910807913125798
-0.02928359000327519
-0.028647056551761755
-0.028001468601186106
-0.02734708531887492
-0.02668416401896393
-0.02601296019768213
-0.025333727579389023
-0.024646718171236783
-0.02395218232456472
-0.0232503688013858
-0.022541524844543814
-0.021825896250315592
-0.02110372744241017
-0.020375261546476557
-0.019640740464373436
-0.018900404947580687
-0.01815449466924436
-0.017403248294446623
-0.016646903548378982
-0.01588569728217282
-0.015119865536209606
-0.01434964360078957
-0.01357526607408951
-0.012796966917382628
-0.012014979507530794
-0.011229536686792222
-0.010440870810014232
-0.009649213789301956
-0.008854797136276156
-0.008057852002047186
-0.0072586092150455144
-0.006457299316861
-0.005654152596251351
-0.004849399121487571
-0.00404326877121058
-0.003235991263976748
-0.002427796186673973
-0.0016189130219938983
-0.0008095711751455482
0.0
0.0
0.0
0.0
0.0
0.0
0.0
0.0
0.0
0.0
0.0
0.0
0.0
0.0
0.0
0.0
0.0
0.0
0.0
0.0
0.0
0.0
0.0
0.0
0.0
0.0
0.0
0.0
0.0
0.0
0.0
0.0
0.0
0.0
0.0
0.0
0.0
0.0
0.0
0.0
0.0
0.0
0.0
0.0
0.0
0.0
0.0
0.0
0.0
0.000488970254241038
0.0004587521885538232
0.00042902152627579705
0.00039975676286999956
0.0003709364717123581
0.0003425392980429892
0.00031454395242441486
0.00028692920381618756
0.0002596738723714475
0.00023275682205664086
0.00020615695318983293
0.0001798531949886921
0.0001538244982128672
0.000128049827980194
0.0001025081568299682
7.717845810030418e-05
5.203969968134055e-05
2.7070838199239336e-05
2.250813680661976e-06
-2.244145525916194e-05
-4.702707566617205e-05
-7.152718390315183e-05
-9.596294868395847e-05
-0.00012035557346516142
-0.00014472629817803096
-0.00016909640028917703
-0.00019348719518290892
-0.00021792003586340938
-0.00024241631197923638
-0.0002669974481773687
-0.00029168490179796894
-0.000316500159927028
-0.00034146473582731844
-0.0003666001647743247
-0.0003919279993263916
-0.0004174698040660537
-0.00044324714985269174
-0.0004692816076333185
-0.0004955947418624146
-0.0005222081035888641
-0.0005491432232730862
-0.0005764216034037051
-0.0006040647109895541
-0.0006320939700084385
-0.0006605307539011337
-0.0006893963782047755
-0.0007187120934260792
-0.0007484990782610637
-0.0007787784332729324
0.0009777220560536948
0.0009172951616948814
0.0008578430211611042
0.0007993226290555294
0.0007416911362514468
0.000684905837712317
0.0006289241593280998
0.0005737036439877274
0.0005192019370991044
0.00046537677175897973
0.0004121859537644702
0.0003595873466480238
0.0003075388569057965
0.0002559984195779233
0.00020492398432754447
0.0001542735021526883
0.00010400491285395854
5.4076133368431637e-05
4.445047068710863e-06
-4.493050588715877e-05
-9.409273707644685e-05
-0.0001430839171416971
-0.0001919463818734601
-0.00024072253700419604
-0.0002894548616801882
-0.0003381859105865252
-0.00038695831471308466
-0.00043581478075687324
-0.0004847980891656131
-0.0005339510908374452
-0.0005833167024994339
-0.0006329379007979635
-0.0006828577151434045
-0.0007331192193604605
-0.0007837655222041232
-0.0008348397568141256
-0.0008863850691887697
-0.0009384446057701694
-0.0009910615002442097
-0.0010442788596701305
-0.0010981397500660014
-0.0011526871815888602
-0.0012079640934603516
-0.0012640133388017749
-0.0013208776695542849
-0.001378599721673059
-0.001437222000797377
-0.0014967868686082896
-0.0015573365300992235
0.0014660369770911521
0.0013754197265345757
0.0012862644738953128
0.0011985067203246636
0.001112082202488528
0.001026926874090375
0.0009429768859254672
0.0008601685647973018
0.0007784383916144281
0.0006977229789714566
0.000617959048503366
0.0005390834082854529
0.00046103293053464137
0.00038374452984996
0.0003071551422122876
0.0002312017049448333
0.0001558211378183966
8.095032546687263e-05
6.5261012608901105e-06
-6.75147672316017e-05
-0.00014123559108140618
-0.000214699771037358
-0.00028797080668704444
-0.00036111230367478423
-0.0004341879789273403
-0.0005072616638523389
-0.0005803973054895454
-0.0006536589656091227
-0.0007271108177640182
-0.0008008171423184637
-0.0008748423194876114
-0.0009492508204371433
-0.001024107196505683
-0.0010994760666280252
-0.0011754221030477764
-0.0012520100154291317
-0.0013293045334879508
-0.0014073703882801966
-0.00148627229230227
-0.0015660749185747835
-0.0016468428788991311
-0.001728640701494387
-0.0018115328082408742
-0.0018955834917754749
-0.0019808568927027776
-0.0020674169772058777
-0.0021553275153584225
-0.0022446520604580485
-0.0023354539297185733
0.001953696637338132
0.0018329167353774646
0.0017140859150996419
0.0015971181954508844
0.001481927911463583
0.0013684296892321932
0.0012565384189441935
0.0011461692264092456
0.001037237443512064
0.000929658577996144
0.0008233482829644301
0.0007182223264615625
0.0006141965614784556
0.0005111868966969306
0.000409109268267969
0.00030787961289230494
0.00020741384244785663
0.00010762782038473786
8.437340084264932e-06
-9.024189464690202e-05
-0.0001884942867930366
-0.000286404360932056
-0.0003840567755166376
-0.00048153633254817093
-0.0005789279845786914
-0.0006763168389947183
-0.0007737881595568563
-0.0008714273651870497
-0.0009693200260143478
-0.0010675518567075223
-0.001166208707141765
-0.0012653765504641171
-0.0013651414686410462
-0.0014655896355918736
-0.0015668072980251759
-0.0016688807541241
-0.0017718963302398567
-0.001875940355776481
-0.0019810991364723318
-0.002087458926306001
-0.0021951058982783546
-0.0023041261143467366
-0.0024146054948124655
-0.0025266297874881947
-0.002640284536997336
-0.0027556550545838904
-0.0028728263888353595
-0.002991883297747076
-0.003112910222578855
0.002440482729697183
0.0022895771086795954
0.0021411074377725593
0.0019949662689658807
0.0018510465526684556
0.0017092416058025837
0.0015694450774886397
0.0014315509128770487
0.0012954533156623613
0.0011610467097906859
0.0010282257008450626
0.0008968850375654475
0.0007669195739304925
0.0006382242321987385
0.000510693967275918
0.0003842237327442962
0.00025870844885952265
0.00013404297278946415
1.0122071340044068e-05
-0.00011315960361902665
-0.00023590753683679959
-0.0003582273683180426
-0.00048022490878109206
-0.000602006151830047
-0.0007236772827617649
-0.000845344683951155
-0.0009671149367821954
-0.0010890948201155715
-0.0012113913053066255
-0.0013341115478094244
-0.0014573628754253358
-0.0015812527732769156
-0.0017058888656108658
-0.0018313788945584894
-0.001957830695999532
-0.0020853521727100914
-0.002214051264992582
-0.0023440359190155993
-0.0024754140531182685
-0.002608293522362958
-0.002742782081649514
-0.0028789873477345386
-0.0030170167605315817
-0.003156977544099772
-0.003298976667761245
-0.0034431208078196805
-0.0035895163103854245
-0.0037382691558432175
-0.003889484925529154
0.0029261770450784235
0.002745191858439115
0.002567129218649246
0.0023918602302107407
0.0022192564805665425
0.0020491900008925467
0.001881533224029698
0.0017161589402295604
0.0015529402513596725
0.0013917505241847618
0.001232463343308998
0.0010749524643277433
0.0009190917677040192
0.0007647552138466263
0.0006118167998302379
0.00046015051816063093
0.0003096303179500568
0.00016013006883140452
1.1523527904289682e-05
-0.00013631569003433273
-0.0002835141387456184
-0.0004301985631070437
-0.0005764959178163447
-0.0007225333821142813
-0.000868438370431603
-0.0010143385388950144
-0.0011603617876534374
-0.0013066362590146052
-0.00145329033140894
-0.0016004526092238257
-0.0017482519085784034
-0.001896817239134757
-0.0020462777820694045
-0.00219676286435837
-0.0023484019295485423
-0.002501324505231011
-0.0026556601674516947
-0.0028115385023304938
-0.0029690890651925916
-0.003128441337549984
-0.0032897246823071886
-0.003453068297601771
-0.003618601169728865
-0.003786452025638247
-0.003956749285531439
-0.004129621016126527
-0.004305194885198159
-0.004483598118038305
-0.004664957456520878
0.0034105614981604026
0.0031995521121627453
0.0029919515400446536
0.0027876094627831798
0.0025863761314261846
0.0023881023200726203
0.002192639275561247
0.001999838664660192
0.0018095525195169259
0.001621633182092812
0.0014359332482666049
0.0012523055122512481
0.0010706029119254986
0.0008906784756380745
0.000712385270997801
0.0005355763561198693
0.00036010473375240365
0.00018582330866554028
1.258484864252771e-05
-0.00015975805063439075
-0.00033135299653796677
-0.000502347826079875
-0.0006728906279413166
-0.0008431297598071604
-0.0010132138608946082
-0.0011832918596014555
-0.0013535129762312769
-0.0015240267207850592
-0.0016949828858392397
-0.001866531534561164
-0.0020388229839432273
-0.0022120077833671496
-0.002386236688641355
-0.0025616606316882806
-0.0027384306860816624
-0.0029166980286823695
-0.0030966138976446524
-0.0032783295471058905
-0.0034619961989115484
-0.003647764991766107
-0.003835786928243431
-0.004026212820133292
-0.004219193232645677
-0.004414878428041313
-0.004613418309303268
-0.00481496236451227
-0.005019659612635742
-0.005227658551486981
-0.005439107108655406
0.0038934181539872713
0.0036524491375490567
0.003415374812298002
0.003182023464476207
0.002952224040541955
0.002725806091738265
0.0025025997149611006
0.002282435490841199
0.002065144419915352
0.0018505578577201634
0.0016385074495955405
0.0014288250659370964
0.0012213427385870772
0.0010158925990023987
0.0008123068187863084
0.0006104175531194499
0.0004100568875747316
0.0002110567887491342
1.3249059098275877e-05
-0.0001835347036947031
-0.0003794631425168148
-0.0005747051715521522
-0.0007694300017329482
-0.0009638071607537317
-0.0011580065075276079
-0.0013521982410012328
-0.0015465529032824003
-0.001741241377069288
-0.0019364348774057894
-0.002132304937820986
-0.0023290233909456746
-0.0025267623437323365
-0.002725694147439981
-0.0029259913625836464
-0.003127826719074276
-0.003331373071829811
-0.003536803352163593
-0.003744290515304728
-0.003954007484447299
-0.004166127091770759
-0.004380822016923335
-0.004598264723508946
-0.004818627394171079
-0.005042081864920769
-0.0052687995594102996
-0.005498951423910113
-0.005732707863802205
-0.005970238682457515
-0.006211713023418827
0.004374529255568609
0.004103674368028844
0.003837199596934503
0.0035749118678015303
0.0033166188599164413
0.0030621289418006088
0.0028112511025920645
0.002563794880384117
0.0023195702885157946
0.0020783877407581494
0.0018400579762881373
0.0016043919852856206
0.0013712009359312667
0.0011402961035252652
0.0009114888023864455
0.0006845903211325724
0.0004594118618846013
0.00023576448387953932
1.3459051921136088e-05
-0.00020769380996223387
-0.00042788375932048664
-0.0006473007702837941
-0.0008661351625371978
-0.001084577624090803
-0.0013028192277139826
-0.0015210514409429014
-0.0017394661296127394
-0.001958255554904148
-0.0021776123639330623
-0.002397729573949547
-0.0026188005502495236
-0.002841018977940648
-0.0030645788277417116
-0.003289674316036442
-0.003516499859433204
-0.003745250024140125
-0.003976119470496394
-0.0042093028930523515
-0.004444994956639344
-0.004683390228921272
-0.004924683109974957
-0.005169067759503451
-0.005416738022344743
-0.0056678873530003945
-0.0059227087399726045
-0.0061813946307608435
-0.0064441368584347266
-0.006711126570763755
-0.006982554162946943
0.004853677252644518
0.004553019429299731
0.0042572266306572515
0.003966084461187148
0.0036793793764707395
0.0033968986087719545
0.003118430088175762
0.002843762360462804
0.0025726845028365693
0.002304986038561591
0.002040456851510077
0.0017788871015497795
0.0015200671416407876
0.0012637874374414352
0.0010098384901557598
0.0007580107632885069
0.0005080946139065002
0.0002598802289413724
1.3157567005147706e-05
-0.0002322836938762382
-0.00047665420224932397
-0.0007201649726538918
-0.0009630274182329099
-0.0012054533763409985
-0.0014476551270096445
-0.0016898454041739774
-0.0019322373996101356
-0.00217504475957486
-0.002418481574181184
-0.0026627623595840283
-0.002908102033090739
-0.003154715881351414
-0.003402819521825672
-0.0036526288577674293
-0.003904360027001936
-0.0041582293448331805
-0.00441445324145316
-0.004673248194282852
-0.0049348306557262895
-0.005199416976877776
-0.005467223327782103
-0.005738465614912065
-0.006013359396594047
-0.00629211979718199
-0.006574961420852392
-0.006862098265965793
-0.007153743641014762
-0.007450110083252247
-0.00775140928116769
0.005330644831776837
0.005000276166989316
0.004675256850277988
0.00435535121093523
0.004040324530848508
0.003729942959291099
0.0034239734229671143
0.0031221835326131404
0.0028243414873986893
0.0025302159783001776
0.0022395760915536298
0.0019521912132181621
0.0016678309358069492
0.0013862649678672973
0.0011072630473143623
0.0008305948592475677
0.0005560299589050106
0.0002833377003376914
1.2287171316272752e-05
-0.0002573528650914431
-0.0005258140218821814
-0.0007933283321111992
-0.0010601282852566564
-0.0013264468557525014
-0.0015925175235400918
-0.0018585742865402871
-0.002124851664993986
-0.0023915846976665686
-0.0026590089299549317
-0.002927360393979841
-0.0031968755807893537
-0.003467791404841425
-0.0037403451609783027
-0.004014774474153816
-0.004291317242208669
-0.004570211572058031
-0.00485169570969171
-0.005136007964450318
-0.005423386628097453
-0.005714069889271912
-0.006008295743970763
-0.006306301902783949
-0.006608325695677511
-0.006914603975198946
-0.00722537301905999
-0.007540868433135654
-0.007861325056002332
-0.008186976866222977
-0.008518056893672382
0.005805214947925896
0.00544523667557794
0.00509109141869264
0.004742522284021881
0.004399273436873146
0.004061090004129391
0.003727717972253656
0.0033989040817193985
0.0030743957192371748
0.002753940809072206
0.002437287704667572
0.0021241850817049256
0.0018143818336502264
0.0015076269707460122
0.0012036695233263
0.0009022584502458674
0.0006031425531321892
0.00030607039708798785
1.0790238395005581e-05
-0.0002829500403122563
-0.0005754029869869233
-0.0008668216288998355
-0.0011574595128830056
-0.001447570736875336
-0.0017374099726166323
-0.0020272324793889534
-0.0023172941087554557
-0.002607851300296103
-0.002899161068385701
-0.003191480980105429
-0.003485069124424553
-0.0037801840728330853
-0.004077084831652802
-0.00437603078630542
-0.004677281637851877
-0.004981097332190473
-0.005287737982340527
-0.005597463784304353
-0.00591053492706381
-0.006227211497335278
-0.0065477533797805194
-0.006872420153449166
-0.007201470985310751
-0.007535164521821156
-0.007873758779559696
-0.008217511036066057
-0.008566677722103268
-0.008921514316668773
-0.009282275246173375
0.006277170857668006
0.005887693328708258
0.005504531752001425
0.005127408071814482
0.004756045401712881
0.0043901679147126844
0.0040295007281986326
0.003673769785192007
0.003322701733471883
0.002976023803966822
0.00263346368974311
0.002294749426822576
0.0019596092779683998
0.001627771620479949
0.001298964838943477
0.000972917223790542
0.0006493568764239847
0.00032801162158268714
8.608927530259893e-06
-0.0003091241654357715
-0.0006254611077163996
-0.0009406758940457323
-0.001255043107740839
-0.0015688379553502507
-0.0018823362915438438
-0.0021958146341446317
-0.0025095501692563482
-0.0028238207464916757
-0.0031389048643539873
-0.003455081645873469
-0.003772630804644338
-0.004091832601456393
-0.004412967791761878
-0.00473631756427144
-0.005062163471010323
-0.005390787349242585
-0.005722471235712954
-0.006057497273725342
-0.006396147613644855
-0.006738704307484427
-0.007085449198315463
-0.00743666380532794
-0.007792629205456158
-0.008153625912582417
-0.008519933755432215
-0.0088918317553792
-0.009269598005487373
-0.009653509552227022
-0.010043842281411803
0.006746296154206156
0.00632743881100388
0.0059153795478687505
0.005509819214776989
0.005110459946801382
0.004717005040188448
0.00432915882304081
0.003946626522336709
0.003569114128927667
0.003196328262056153
0.0028279760348334996
0.002463764922013034