# vtk DataFile Version 2.0
mesh vtk view
ASCII
DATASET UNSTRUCTURED_GRID
POINTS 11 double
0.0 0.0 0.0
1000.0 0.0 0.0
99.99999999996535 -0.6479999999996189 0.0
199.9999999997947 -2.04799999999689 0.0
299.9999999996783 -3.5279999999957186 0.0
399.9999999997153 -4.607999999997835 0.0
499.9999999997633 -5.0 0.0
599.9999999998549 -4.608000000001102 0.0
699.9999999998913 -3.528000000001449 0.0
799.9999999999275 -2.048000000001106 0.0
899.9999999999636 -0.6480000000004159 0.0

CELLS 10 30
2 0 2
2 2 3
2 3 4
2 4 5
2 5 6
2 6 7
2 7 8
2 8 9
2 9 10
2 10 1

CELL_TYPES 10
3
3
3
3
3
3
3
3
3
3

CELL_DATA 10
SCALARS CellEntityIds float 1
LOOKUP_TABLE default
7.200000000001096
2.400000000004721
-1.1999999999924107
-3.599999999994516
-4.799999999998376
-4.8000000000009155
-3.6000000000022156
-1.2000000000026638
2.3999999999977497
7.199999999999003
