# vtk DataFile Version 2.0
mesh vtk view
ASCII
DATASET UNSTRUCTURED_GRID
POINTS 11 double
0.0 0.0 0.0
1000.0 0.0 0.0
99.99999999996535 0.0 0.0
199.9999999997947 0.0 0.0
299.9999999996783 0.0 0.0
399.9999999997153 0.0 0.0
499.9999999997633 0.0 0.0
599.9999999998549 0.0 0.0
699.9999999998913 0.0 0.0
799.9999999999275 0.0 0.0
899.9999999999636 0.0 0.0

CELLS 10 30
2 0 2
2 2 3
2 3 4
2 4 5
2 5 6
2 6 7
2 7 8
2 8 9
2 9 10
2 10 1

CELL_TYPES 10
3
3
3
3
3
3
3
3
3
3

CELL_DATA 10
SCALARS CellEntityIds float 1
LOOKUP_TABLE default
1.0
1.0
1.0
1.0
1.0
1.0
1.0
1.0
1.0
1.0
