# vtk DataFile Version 2.0
mesh vtk view
ASCII
DATASET UNSTRUCTURED_GRID
POINTS 45 double
0.0 0.0 0.0
199.9972920660826 -0.0019299395447669797 -0.0019299395450298913
200.00270793391778 99.99807006045519 0.0019299395445394531
0.0 100.0 0.0
0.0 0.0 100.0
200.0027079339174 0.0019299395447673314 99.99807006045496
199.99729206608222 100.00192993954481 100.00192993954454
0.0 100.0 100.0
49.99892325350626 0.0037506254511900454 0.0037506254511151596
100.0001249204483 -0.007064334646736678 -0.00706433464670099
150.00176069910196 0.006430596224233254 0.006430596224327614
199.99999999999983 50.00203907835821 2.5387394207111044e-13
149.99823930097963 100.00643059622426 -0.006430596224167606
99.9998750797155 99.99293566535327 0.0070643346467655285
50.00107674662527 100.00375062545116 -0.003750625451239019
0.0 50.00000000025812 0.0
50.00107674604648 -0.003750625451190022 100.00375062545112
99.99987507884644 0.007064334646736654 99.9929356653533
149.99823930035126 -0.006430596224233405 100.00643059622433
200.00000000000017 49.99796092128918 100.00000000000026
150.00176069973097 99.99356940377574 99.99356940377584
100.0001249213169 100.00706433464673 100.00706433464677
49.99892325408527 99.99624937454884 99.99624937454877
0.0 50.00000000025812 100.0
0.0 0.0 50.0
200.0 -1.602253664282389e-16 50.00203907853476
200.0 100.0 49.99796092146573
0.0 100.0 50.0
50.00000000006588 49.996223053360744 6.484420033245466e-14
100.00000000008168 50.007167098993634 -2.5660289196696894e-14
150.00000000004104 49.99344848177739 -9.741825435871029e-14
49.99999999977637 -3.1001972890812837e-18 49.996223053211295
99.99999999964737 6.4183528687163325e-18 50.0071670989527
149.9999999997266 6.782992363507639e-17 49.99344848184502
200.0 49.99999999982369 49.999999999999744
150.0000000003553 100.0 50.00655151815482
100.0000000005162 100.0 49.99283290104722
50.00000000035527 100.0 50.00377694678885
0.0 50.00000000025812 50.0
50.00000000006578 50.003776946938295 100.00000000000007
100.00000000008191 49.992832901088164 99.99999999999997
150.00000000004076 50.00655151808719 99.9999999999999
50.00000000006583 50.00000000014952 49.99999999999993
100.0000000000818 50.0000000000409 50.00000000000003
150.0000000000409 49.99999999993229 50.0000000000001

CELLS 16 144
8 0 8 28 15 24 31 42 38
8 24 31 42 38 4 16 39 23
8 15 28 14 3 38 42 37 27
8 38 42 37 27 23 39 22 7
8 8 9 29 28 31 32 43 42
8 31 32 43 42 16 17 40 39
8 28 29 13 14 42 43 36 37
8 42 43 36 37 39 40 21 22
8 9 10 30 29 32 33 44 43
8 32 33 44 43 17 18 41 40
8 29 30 12 13 43 44 35 36
8 43 44 35 36 40 41 20 21
8 10 1 11 30 33 25 34 44
8 33 25 34 44 18 5 19 41
8 30 11 2 12 44 34 26 35
8 44 34 26 35 41 19 6 20

CELL_TYPES 16
12
12
12
12
12
12
12
12
12
12
12
12
12
12
12
12

POINT_DATA 45
SCALARS MODE3_0.0873_Hz float 1
LOOKUP_TABLE default
0.0
1.9223838973376715e-05
1.9223838973484888e-05
0.0
0.0
1.922383897337692e-05
1.9223838973485376e-05
0.0
2.7061857419559757e-05
4.9956294200072724e-05
4.6315547575797645e-05
1.019539267257651e-05
4.631554757564534e-05
4.995629420026266e-05
2.706185741979337e-05
0.0
2.7061857419559788e-05
4.9956294200072684e-05
4.6315547575798086e-05
1.0195392672578193e-05
4.631554757564575e-05
4.995629420026258e-05
2.7061857419793274e-05
0.0
0.0
1.0195392673802076e-05
1.0195392671352456e-05
0.0
1.8884733943879858e-05
3.583549476368366e-05
3.275759077450171e-05
1.888473394353988e-05
3.583549476349411e-05
3.275759077489008e-05
1.2737737959848683e-15
3.275759077411373e-05
3.5835494763872983e-05
1.888473394421969e-05
0.0
1.888473394387971e-05
3.583549476368344e-05
3.275759077450236e-05
3.5354019295110955e-16
1.537530599435624e-16
4.804456569204287e-16

