# vtk DataFile Version 2.0
mesh vtk view
ASCII
DATASET UNSTRUCTURED_GRID
POINTS 45 double
0.0 0.0 0.0
199.99066347230604 0.013434519844369696 0.005489959590962682
200.00409704802917 100.01320441416388 0.004899988395332359
0.0 100.0 0.0
0.0 0.0 100.0
199.99590295197103 0.013204414163910588 100.0048999883953
200.00933652769413 100.01343451984432 100.00548995959097
0.0 100.0 100.0
50.002290584432885 0.0011378525881537815 0.00019732219437721375
99.99469754612718 0.00027713008349993494 0.00043900433954144
150.00808581814917 -0.004983103882426398 -0.0022374427665271856
200.00262272432073 49.986861249470195 -0.00510067675975762
149.99645178762376 99.99528727779209 -0.0015442073825515615
100.00232681916404 99.99997268380568 -0.0003415697606909942
49.99899484772679 100.00136461057147 0.000778710182034547
0.0 50.00000000025812 0.0
50.00100515240484 0.0013646105713553762 100.00077871018213
99.99767318099961 -2.731619415352627e-05 99.99965843023918
150.003548212458 -0.004712722208034258 99.99845579261755
199.99737727567924 49.98686124947021 99.99489932324026
149.99191418193263 99.99501689611758 99.99776255723339
100.00530245403645 100.00027713008353 100.00043900433965
49.997709415698715 100.0011378525881 100.00019732219428
0.0 50.00000000025812 100.0
0.0 0.0 50.0
200.00672443983296 -0.013077696999046172 49.994875510681666
199.99327556016684 99.986922303001 49.99487551068163
0.0 100.0 50.0
49.99937740335872 49.99856268341308 -0.000559418735070915
100.00147591134868 50.00011894324178 5.883935198826844e-05
149.99773196270849 50.004634511805804 0.0017857939764276839
49.998403715308314 -0.001434301575535408 49.999439405265704
100.0037841093361 0.00015085904344002397 50.00004639125842
149.99418494685958 0.004578622333164171 50.00180759249945
200.00000000000003 50.01289569616382 50.00502969128492
150.0058150532225 100.0045786223331 50.001807592499546
99.99621589082739 100.0001508590435 50.000046391258294
50.001596284823364 99.99856569842443 49.9994394052658
0.0 50.00000000025812 50.0
50.000622596772956 49.99856268341316 99.99944058126492
99.9985240888149 50.000118943241674 100.00005883935201
150.00226803737334 50.00463451180586 100.00178579397641
50.000000000065825 50.00162014334379 50.00063190229435
100.00000000008181 49.99960387632028 49.99984550039232
150.0000000000409 49.99563634115789 49.99829804797437

CELLS 16 144
8 0 8 28 15 24 31 42 38
8 24 31 42 38 4 16 39 23
8 15 28 14 3 38 42 37 27
8 38 42 37 27 23 39 22 7
8 8 9 29 28 31 32 43 42
8 31 32 43 42 16 17 40 39
8 28 29 13 14 42 43 36 37
8 42 43 36 37 39 40 21 22
8 9 10 30 29 32 33 44 43
8 32 33 44 43 17 18 41 40
8 29 30 12 13 43 44 35 36
8 43 44 35 36 40 41 20 21
8 10 1 11 30 33 25 34 44
8 33 25 34 44 18 5 19 41
8 30 11 2 12 44 34 26 35
8 44 34 26 35 41 19 6 20

CELL_TYPES 16
12
12
12
12
12
12
12
12
12
12
12
12
12
12
12
12

POINT_DATA 45
SCALARS MODE2_0.0849_Hz float 1
LOOKUP_TABLE default
0.0
8.628393957439664e-05
7.334034398594631e-05
0.0
0.0
7.334034398569789e-05
8.628393957467208e-05
0.0
1.2826167227018275e-05
2.6639040535926036e-05
4.878983859345764e-05
7.168025305509545e-05
3.048940005875272e-05
1.1759571735225399e-05
9.325882486284375e-06
0.0
9.325882486019074e-06
1.1759571734907372e-05
3.048940005859283e-05
7.168025305501584e-05
4.878983859409562e-05
2.663904053634242e-05
1.2826167227055744e-05
0.0
0.0
7.786280251822286e-05
7.78628025185172e-05
0.0
8.316332397321339e-06
7.409324567859287e-06
2.7300070408898234e-05
1.1090098701854555e-05
1.8936998664075196e-05
3.809396702902252e-05
6.920924405709452e-05
3.8093967029537436e-05
1.893699866449249e-05
1.1090098701955003e-05
0.0
8.3163323969956e-06
7.409324567917366e-06
2.7300070409147577e-05
8.695062506332384e-06
2.1259358575238833e-06
2.3419094024405443e-05

