# vtk DataFile Version 2.0
mesh vtk view
ASCII
DATASET UNSTRUCTURED_GRID
POINTS 45 double
0.0 0.0 0.0
200.00576355458304 -0.010975623614065759 -0.010975623613991462
199.9942364454168 99.98902437638596 0.010975623614117917
0.0 100.0 0.0
0.0 0.0 100.0
199.99423644541696 0.01097562361406575 99.98902437638601
200.0057635545832 100.01097562361404 100.01097562361412
0.0 100.0 100.0
49.99890469114774 -0.0011779184544617298 -0.0011779184544672484
100.00296386856628 0.0002683778402113739 0.0002683778402434481
149.99511012587774 0.0036752260091873924 0.003675226009135212
200.0 50.01086929585107 -2.332299514447281e-14
150.00488987420428 100.00367522600915 -0.00367522600919675
99.99703613159723 100.00026837784026 -0.0002683778402290707
50.00109530898392 99.99882208154551 0.0011779184544795948
0.0 50.00000000025812 0.0
50.001095308405 0.0011779184544617352 99.99882208154553
99.99703613072846 -0.00026837784021136054 100.00026837784024
150.00488987357548 -0.00367522600918741 100.00367522600914
200.0 49.98913070379631 99.99999999999997
149.99511012650632 99.99632477399085 99.9963247739908
100.00296386943516 99.99973162215974 99.99973162215977
49.99890469172662 100.00117791845449 100.00117791845447
0.0 50.00000000025812 100.0
0.0 0.0 50.0
200.0 -1.3735833102725065e-17 50.010869296027316
200.0 100.0 49.989130703972556
0.0 100.0 50.0
50.000000000065825 50.00127761624012 3.7542538308704385e-15
100.00000000008181 49.999591089457894 -2.2937536680214295e-14
150.0000000000409 49.99645095803547 2.900328041779743e-14
49.99999999977637 1.6808737022139074e-17 50.0012776160906
99.99999999964737 -4.3278995963289354e-18 49.99959108941699
149.9999999997266 1.5646636252327926e-18 49.9964509581032
200.0 49.99999999982369 50.00000000000003
150.0000000003553 100.0 50.00354904189686
100.0000000005162 100.0 50.000408910583
50.00000000035527 100.0 49.998722383909396
0.0 50.00000000025812 50.0
50.00000000006584 49.99872238405892 100.0
100.00000000008178 50.000408910623904 99.99999999999997
150.0000000000409 50.00354904182912 100.00000000000003
50.00000000006583 50.00000000014952 49.99999999999999
100.0000000000818 50.0000000000409 50.00000000000003
150.0000000000409 49.99999999993229 49.999999999999964

CELLS 16 144
8 0 8 28 15 24 31 42 38
8 24 31 42 38 4 16 39 23
8 15 28 14 3 38 42 37 27
8 38 42 37 27 23 39 22 7
8 8 9 29 28 31 32 43 42
8 31 32 43 42 16 17 40 39
8 28 29 13 14 42 43 36 37
8 42 43 36 37 39 40 21 22
8 9 10 30 29 32 33 44 43
8 32 33 44 43 17 18 41 40
8 29 30 12 13 43 44 35 36
8 43 44 35 36 40 41 20 21
8 10 1 11 30 33 25 34 44
8 33 25 34 44 18 5 19 41
8 30 11 2 12 44 34 26 35
8 44 34 26 35 41 19 6 20

CELL_TYPES 16
12
12
12
12
12
12
12
12
12
12
12
12
12
12
12
12

POINT_DATA 45
SCALARS MODE4_0.0896_Hz float 1
LOOKUP_TABLE default
0.0
8.278695381300815e-05
8.278695381361732e-05
0.0
0.0
8.278695381300802e-05
8.278695381361722e-05
0.0
9.968305727002044e-06
1.4940358344712206e-05
3.5681030917954895e-05
5.434648013690531e-05
3.5681030918401275e-05
1.494035834501519e-05
9.968305727165743e-06
0.0
9.968305727002071e-06
1.4940358344712054e-05
3.568103091795484e-05
5.4346480136905153e-05
3.568103091840134e-05
1.4940358345015181e-05
9.96830572716577e-06
0.0
0.0
5.43464801365817e-05
5.434648013722872e-05
0.0
6.388080453002116e-06
2.0445529150169634e-06
1.7745209484131224e-05
6.388080452974271e-06
2.044552915060411e-06
1.7745209483971253e-05
1.3410427081180337e-16
1.774520948429111e-05
2.0445529149734894e-06
6.388080453029973e-06
0.0
6.388080453002095e-06
2.0445529150168833e-06
1.7745209484131302e-05
2.525951321614468e-17
1.308546731420574e-16
1.6196185387846677e-16

