# vtk DataFile Version 2.0
mesh vtk view
ASCII
DATASET UNSTRUCTURED_GRID
POINTS 3 double
0.0 0.0 0.0
2.1285714285714286 0.0 0.0
0.9090862709876852 0.0 0.0

CELLS 2 6
2 0 2
2 2 1

CELL_TYPES 2
3
3

POINT_DATA 3
SCALARS MODE2_2.0795_Hz float 1
LOOKUP_TABLE default
0.0
0.22360679774997894
0.15811388300841894

