# vtk DataFile Version 2.0
mesh vtk view
ASCII
DATASET UNSTRUCTURED_GRID
POINTS 5151 double
0.0 -0.16065434230936632 0.0
200.0 0.0 0.0
199.95583678785147 99.95175534024845 0.0
0.0 99.83961589892913 0.0
2.000519697303318 -0.16063884728129163 0.0
4.001039166861184 -0.16059236685819628 0.0
6.001558180953045 -0.16051491502299342 0.0
8.002076511908847 -0.16040651507894635 0.0
10.002593932135673 -0.16026719964724015 0.0
12.003110214143788 -0.16009701066349602 0.0
14.003625130573678 -0.15989599937314408 0.0
16.00413845422317 -0.15966422632554564 0.0
18.00464995807715 -0.15940176136672482 0.0
20.00515941533926 -0.1591086836305492 0.0
22.005666599463368 -0.158785081528167 0.0
24.00617128418724 -0.15843105273547956 0.0
26.006673243567516 -0.1580467041783977 0.0
28.007172252019828 -0.1576321520155993 0.0
30.007668084358993 -0.15718752161847038 0.0
32.008160515839265 -0.15671294754787898 0.0
34.00864932220026 -0.15620857352738762 0.0
36.009134279715255 -0.15567455241247902 0.0
38.00961516524196 -0.15511104615531607 0.0
40.01009175627663 -0.15451822576452703 0.0
42.010563831011176 -0.15389627125944552 0.0
44.01103116839374 -0.1532453716181948 0.0
46.01149354819262 -0.15256572471894653 0.0
48.01195075106381 -0.1518575372736317 0.0
50.01240255862202 -0.15112102475332065 0.0
52.01284875351543 -0.15035641130442265 0.0
54.01328911950397 -0.14956392965479612 0.0
56.01372344154129 -0.14874382100877956 0.0
58.01415150586023 -0.1478963349300847 0.0
60.014573100061696 -0.14702172921141346 0.0
62.01498801320685 -0.1461202697295682 0.0
64.01539603591502 -0.14519223028473927 0.0
66.01579696045813 -0.14423789242256022 0.0
68.01619058085616 -0.14325754523741197 0.0
70.01657669298991 -0.14225148515533623 0.0
72.01695509470086 -0.14122001569482756 0.0
74.01732558589626 -0.1401634472036161 0.0
76.01768796865436 -0.13908209656942905 0.0
78.01804204732926 -0.1379762869025589 0.0
80.01838762865422 -0.13684634718790545 0.0
82.01872452184246 -0.1356926119039733 0.0
84.01905253868438 -0.13451542060609753 0.0
86.01937149363945 -0.1333151174709564 0.0
88.01968120392186 -0.13209205079915995 0.0
90.01998148957746 -0.13084657247242654 0.0
92.02027217355061 -0.12957903736152956 0.0
94.0205530817386 -0.12828980268081758 0.0
96.02082404303104 -0.12697922728468497 0.0
98.02108488933182 -0.1256476709008698 0.0
100.02133545556012 -0.1242954932948665 0.0
102.02157557962772 -0.1229230533590702 0.0
104.02180510238827 -0.12153070811945392 0.0
106.0220238675546 -0.12011881165164558 0.0
108.02223172157917 -0.11868771389713176 0.0
110.0224285134921 -0.11723775936898721 0.0
112.02261409469179 -0.11576928573491858 0.0
114.02278831867974 -0.11428262226349475 0.0
116.02295104073322 -0.11277808811712074 0.0
118.02310211750623 -0.11125599047252581 0.0
120.02324140654851 -0.10971662244615481 0.0
122.02336876573209 -0.10816026079775279 0.0
124.02348405257005 -0.10658716338043187 0.0
126.02358712341237 -0.10499756629939795 0.0
128.02367783250602 -0.10339168073400945 0.0
130.02375603087845 -0.10176968936861516 0.0
132.02382156502696 -0.10013174236616895 0.0
134.02387427541558 -0.0984779528043858 0.0
136.02391399468158 -0.09680839147653335 0.0
138.02394054554074 -0.09512308093659795 0.0
140.0239537383221 -0.09342198864045598 0.0
142.02395336806177 -0.09170501899890895 0.0
144.02393921106056 -0.08997200411266894 0.0
146.02391102079216 -0.08822269290035885 0.0
148.02386852301223 -0.08645673825387523 0.0
150.0238114098787 -0.08467368175484839 0.0
152.02373933284005 -0.08287293535271832 0.0
154.02365189396946 -0.08105375922672409 0.0
156.02354863532395 -0.07921523481296418 0.0
158.0234290257668 -0.07735623164738979 0.0
160.0232924444987 -0.07547536621711302 0.0
162.02313816026526 -0.07357095036667326 0.0
164.02296530482235 -0.07164092588182477 0.0
166.0227728386636 -0.0696827805277377 0.0
168.02255950617604 -0.0676934388207635 0.0
170.02232377610463 -0.06566911778337896 0.0
172.02206376123752 -0.06360513322624092 0.0
174.02177710807663 -0.061495634599967076 0.0
176.02146084214164 -0.059333234106745465 0.0
178.02111114585298 -0.05710847486632652 0.0
180.020723030858 -0.05480904529645956 0.0
182.02028983783626 -0.05241858063056138 0.0
184.01980244648536 -0.04991474324600986 0.0
186.01924794130352 -0.04726606939093456 0.0
188.01860733963036 -0.04442599481319824 0.0
190.0178506073448 -0.04132326640087348 0.0
192.0169285802739 -0.0378297378785218 0.0
194.0157308220282 -0.033749725393419354 0.0
196.0140362246455 -0.028362116150367322 0.0
198.01048431793947 -0.021649670805374645 0.0
200.00828717990842 1.9847683739749433 0.0
200.008856851702 3.978083410231524 0.0
200.00935497461117 5.974322220685638 0.0
200.00919538798212 7.971636046847996 0.0
200.008780406032 9.969551980700174 0.0
200.0081882034232 11.967843159434176 0.0
200.00748028955852 13.966396052611122 0.0
200.0066888312122 15.965142090603164 0.0
200.00583495432463 17.964037259686627 0.0
200.00493271733066 19.963051486115283 0.0
200.00399199103168 21.962163364771495 0.0
200.0030198956128 23.961357134190298 0.0
200.0020216851064 25.960620867316596 0.0
200.00100129548355 27.959945327750194 0.0
199.99996170438095 29.959323218919767 0.0
199.99890517497673 31.958748674313124 0.0
199.9978334267318 33.958216901550095 0.0
199.9967477581635 35.9577239277324 0.0
199.9956491372702 37.957266413376914 0.0
199.9945382695838 39.95684151384152 0.0
199.99341565041735 41.956446774383245 0.0
199.99228160574208 43.95608004945887 0.0
199.9911363247615 45.95573943979171 0.0
199.98997988634824 47.955423242651506 0.0
199.98881228090767 49.955129912092055 0.0
199.9876334288198 51.95485802678367 0.0
199.98644319632535 53.954606263703404 0.0
199.9852414095226 55.954373376390436 0.0
199.98402786700115 57.95415817679685 0.0
199.9828023515404 59.95395952000104 0.0
199.98156464123127 61.95377629123001 0.0
199.98031452033544 63.95360739477635 0.0
199.97905179016794 65.95345174450284 0.0
199.97777628027492 67.95330825568729 0.0
199.97648786017703 69.95317583816441 0.0
199.97518645195868 71.95305339061193 0.0
199.97387204400113 73.95293979606791 0.0
199.9725447061861 75.95283391880432 0.0
199.97120460693102 77.95273460282503 0.0
199.96985203245305 79.95264067243845 0.0
199.96848740868967 81.9525509356231 0.0
199.96711132629716 83.95246419131539 0.0
199.9657245690545 85.95237924240536 0.0
199.9643281456704 87.9522949173277 0.0
199.96292332406904 89.95221010506752 0.0
199.96151166472657 91.95212381197506 0.0
199.96009504248187 93.9520352557132 0.0
199.95867562364188 95.95194402449759 0.0
199.95725568744473 97.9518503429234 0.0
197.95580512386908 99.95033710114275 0.0
195.95577213889692 99.94891989710021 0.0
193.95573670767158 99.94750216717706 0.0
191.95569862030231 99.94608162215025 0.0
189.9556583183876 99.94465609180206 0.0
187.9556166292281 99.94322371449454 0.0
185.9555746032769 99.94178297026053 0.0
183.95553341472697 99.94033266742404 0.0
181.95549429796057 99.93887191572661 0.0
179.95545850514026 99.93740009662079 0.0
177.95542727695783 99.93591683435734 0.0
175.95540182199062 99.93442196903487 0.0
173.95538330194734 99.93291553187022 0.0
171.95537282111204 99.93139772261796 0.0
169.95537141888758 99.92986888896314 0.0
167.9553800647045 99.92832950769713 0.0
165.95539965478076 99.92678016750341 0.0
163.9554310103625 99.92522155320708 0.0
161.95547487716692 99.92365443136727 0.0
159.95553192580817 99.92207963711361 0.0
157.955602753032 99.92049806214484 0.0
155.9556878836093 99.91891064381903 0.0
153.9557877727663 99.91731835527438 0.0
151.95590280903784 99.9157221965236 0.0
149.95603331745014 99.914123186469 0.0
147.95617956294643 99.91252235578595 0.0
145.9563417539802 99.9109207406237 0.0
143.95652004620948 99.90931937707205 0.0
141.95671454623306 99.90771929634266 0.0
139.95692531531992 99.90612152061304 0.0
137.95715237308673 99.90452705948223 0.0
135.9573957010883 99.9029369069873 0.0
133.95765524629076 99.90135203913036 0.0
131.95793092440394 99.8997734118678 0.0
129.95822262305364 99.89820195951462 0.0
127.95853020478081 99.89663859351874 0.0
125.958853509851 99.89508420156274 0.0
123.95919235890327 99.89353964695277 0.0
121.95954655537905 99.89200576825705 0.0
119.95991588776577 99.89048337915918 0.0
117.96030013166613 99.88897326849438 0.0
115.96069905168139 99.88747620043954 0.0
113.96111240312005 99.88599291483041 0.0
111.96153993354095 99.88452412758267 0.0
109.96198138413763 99.88307053119534 0.0
107.96243649097474 99.88163279531821 0.0
105.96290498608553 99.88021156736643 0.0
103.96338659844044 99.87880747316842 0.0
101.96388105479643 99.87742111763458 0.0
99.964388080437 99.87605308543621 0.0
97.9649073998121 99.87470394168587 0.0
95.96543873708698 99.87337423261167 0.0
93.96598181660899 99.87206448621944 0.0
91.9665363633001 99.87077521293782 0.0
89.96710210298315 99.86950690624214 0.0
87.96767876264889 99.86826004325448 0.0
85.96826607067077 99.8670350853172 0.0
83.96886375697312 99.86583247853869 0.0
81.96947155315915 99.86465265431028 0.0
79.97008919260333 99.86349602979357 0.0
77.9707164105132 99.86236300837851 0.0
75.97135294396473 99.86125398011201 0.0
73.9719985319153 99.86016932209795 0.0
71.97265291519251 99.85910939886904 0.0
69.97331583647865 99.85807456273176 0.0
67.97398704028572 99.85706515408513 0.0
65.97466627288979 99.85608150171458 0.0
63.97535328228371 99.85512392306217 0.0
61.97604781811618 99.85419272447437 0.0
59.97674963162513 99.85328820142873 0.0
57.977458475567765 99.85241063874052 0.0
55.97817410414779 99.85156031075111 0.0
53.97889627294145 99.85073748149856 0.0
51.979624738823176 99.84994240487251 0.0
49.98035925989107 99.84917532475386 0.0
47.98109959539362 99.84843647514073 0.0
45.981845505657745 99.8477260802617 0.0
43.98259675201833 99.84704435467732 0.0
41.983353096750164 99.84639150337095 0.0
39.98411430300216 99.84576772182974 0.0
37.98488013473391 99.84517319611672 0.0
35.98565035665509 99.84460810293479 0.0
33.98642473416758 99.84407260968327 0.0
31.987203033310106 99.84356687450786 0.0
29.98798502070575 99.84309104634458 0.0
27.98877046351225 99.84264526495829 0.0
[...]
POINT_DATA 5151
SCALARS STRESS_EQV float 1
LOOKUP_TABLE default
52.955890224537185
1355.1234859376518
9.986349847994799
82.14652211847662
52.94418144906062
52.90905642595024
52.85051907465371
52.76857595922753
52.663236335787474
52.53451221889085
52.38241846681028
52.20697288561674
52.00819635199785
51.7861129546619
51.54075015414451
51.27213896081471
50.98031413074767
50.6653143791122
50.32718261059793
49.96596616631674
49.58171708645334
49.17449238777371
48.74435435504421
48.291370845085
47.81561560201464
47.31716858203669
46.79611628579514
46.252552096036666
45.68657661796524
45.09829801935248
44.48783236699985
43.85530395574232
43.200845625687634
42.524599062854094
41.82671507781551
41.10735385631992
40.366685175243724
39.60488857648509
38.82215349067653
38.01867930181629
37.194675343051586
36.350360812995106
35.48596460103047
34.60172500911128
33.69788935661926
32.77471345393083
31.832460929399193
30.871402393668255
29.89181442465693
28.893978356185947
27.878178853466352
26.844702259678698
25.793834700215417
24.72585993572399
23.64105696304297
22.539697376811276
21.422042527602642
20.288340551290084
19.138823410304965
17.97370420085715
16.793175179242525
15.597407319227889
14.386552880584832
13.160753763581784
11.92016105846248
10.66497688468869
9.395542811614156
8.112532684813042
6.8174033053705205
5.513573741948926
4.21010001749179
2.936707543763459
1.8322178215036065
1.4327873891405214
2.078265218717335
3.3303395468550954
4.752846824798789
6.251695716700785
7.808053410438278
9.419535263427289
11.089619695251546
12.825092547318427
14.635463195680533
16.533081809473828
18.533639361524152
20.65699529311493
22.92838664283601
25.380152341220036
28.054202537972767
31.00560949266987
34.307942139953724
38.06140191431436
42.40561477174461
47.54052561346584
53.76186489564753
61.52562889183024
71.56732452408693
85.17469177895981
104.67383908041623
135.55873600091573
188.50886052190856
318.10973527452705
884.5862626152654
985.3001601472452
498.99583894140756
332.28959701974964
251.58125322528053
201.45441506057233
167.94057587551103
143.77752458792366
125.51961189311322
111.19167154737778
99.61106705391867
90.02157722751255
81.91904258941315
74.9548494015528
68.88082102760166
63.51592033049816
58.72536969623554
54.40709618215836
50.48267455465522
46.8911204406251
43.58454149910265
40.52503016360943
37.68240448566675
35.03253977232853
32.55611906216082
30.237685235901402
28.064913418792052
26.02804626019305
24.119450907732094
22.333267659429634
20.665128041450878
19.111925484675492
17.67162553807293
16.343105077894755
15.126011473061952
14.020633213858968
13.02777302445542
12.14861275588045
11.384556113277053
10.737030241490148
10.207220215784083
9.795701422452009
9.501922956740323
9.323477906944461
9.255067757851858
9.28702013927693
9.403153779162261
9.577758426809432
9.771770405784128
9.92706572309501
10.019640842238395
10.110101938251361
10.223157259951517
10.321524040678872
10.38462812175732
10.398542445264198
10.355147329719625
10.251868862478169
10.09152107941564
9.88226969043076
9.637750407312124
9.377294251876386
9.126077973536121
8.914822737525856
8.77846287907348
8.753203609512106
8.87190651678928
9.158850770184529
9.62589982690059
10.271809368204401
11.0847352046303
12.046378657829148
13.135935764253947
14.33284920931509
15.618276800781246
16.97563598155415
18.39062747905075
19.85102466554613
21.34639066736124
22.86780012101817
24.40759505051321
25.959181418983874
27.516863350140103
29.075708950637058
30.631441429186808
32.180350020748755
33.7192162882654
35.24525237148986
36.75604858086276
38.24952838350138
39.72390932080248
41.1776687637353
42.60951368174888
44.01835379845957
45.40327765103672
46.76353117487412
48.098498511439885
49.407684793062685
50.690700699604434
51.9472486126917
53.17711021630688
54.38013541046152
55.55623241875563
56.70535898202852
57.82751453978912
58.92273330924887
59.991078178972884
61.03263534050659
62.047509587242686
63.035820215230345
63.99769746562337
64.93327945327997
65.84270953050236
66.72613403906215
67.58370040765993
68.41555555569595
69.22184456770529
70.0027096060654
70.75828903266626
71.48871671302084
72.19412147892336
72.87462672821407
73.53035014237781
74.16140350479168
74.76789260429733
75.34991721046197
75.9075711084555
76.44094218286014
76.95011254103493
77.43515866775951
77.89615160392644
78.33315714298925
78.74623603966805
79.1354442261715
79.5008330318342
79.84244940263285
80.16033611758414
80.45453199944596
80.72507211752259
80.97198798077292
81.19530771964429
81.395056255358
81.5712554555862
81.72392427561218
81.85307888428585
81.95873277418465
82.0408968555058
82.09957953334086
82.13478676804183
80.55354077054861
77.39530145600004
74.29129924526003
71.23911664960187
68.23634041690434
65.28056273912418
62.36938256738465
59.50040705685069
56.671253178153265
53.87954955246654
51.122938596331
48.399079104443274
45.705649461318124
43.04035176813988
40.40091731993024
37.78511410637634
35.19075740186977
32.61572517639743
30.05798122988034
27.515611093172616
24.986879831651347
22.470329130261398
19.96494868975261
17.470497636875997
14.98815414079304
12.521960099731036
10.08246463187728
7.697618851057507
5.453596867110703
3.6730160880347356
3.171940489109629
4.307561735036027
6.389901764368509
8.78242068560633
11.296332771928341
13.87791556878292
16.50841096546918
19.18057284861242
21.891780536219617
24.641558935334537
27.430540629889855
30.25997998575923
33.13150528833395
36.04698347363174
39.00844219763708
42.01802291178828
45.077951555980476
48.19051968103943
51.358071957929376
51.346622529828544
48.179604746828176
45.06760424726713
42.00827986284656
38.99934457155021
36.038578369486665
33.12384771748709
30.253135720978275
27.424590435814412
24.636605066520616
21.887957122889624
19.17806330250583
16.507478879721866
13.878963599327578
11.300025075500013
8.789964966068693
6.403750898188811
4.3325472844797925
3.20841930166033
3.7084224789670905
5.479207152681245
7.716238308799004
10.096768339200512
12.533318670093909
14.997306027299011
17.477877034530945
19.970830392418364
22.47489761293992
24.990265063663607
27.517908483059664
30.059263412159943
32.61604932805487
35.19016997408608
37.78365399188526
40.39861803567467
43.03724299654523
45.701758160967174
48.394430323699574
51.11755607690705
53.87345618100765
56.66447132545565
59.49295883228473
62.36129000806057
65.27184794788374
68.22702565943584
71.22922441834282
74.28085229587948
77.38432282088861
80.54205375277922
51.31227554920116
48.14686128019285
45.03656376046274
41.97905234655232
38.9720536224515
36.013365414931506
33.10087794742786
30.23260663771725
27.40674454440062
24.621749358014217
21.876494193030098
19.170543452536933
16.504692467725743
13.882116586831991
11.311102483238537
8.812560985258441
6.445091292459692
4.406468545299354
3.315438218224588
3.8124964746682037
5.555246172658126
7.771809203703887
10.139552881642828
12.567331248464516
15.024728215253635
17.49999733527321
19.98846645714058
22.488599304051263
25.000420249920456
27.524802149020683
30.06311266833601
32.61702517867592
35.188411412238466
37.77927744373575
40.39172387358647
43.027920141126515
45.69008739906426
48.380486739981855
51.10141085826598
53.85517796691373
56.644127222474886
59.470615175054206
62.337012925064435
65.24570377407838
68.19908122652069
71.19954724558302
74.24951069876639
77.35138595091158
80.50759157866739
51.25503493610697
48.09229329747973
44.98483442176411
41.93034526319212
38.92657514782506
35.97135169583941
33.062604821075126
30.19840388888933
27.37701705257552
24.59700953265745
21.857413708236198
19.158039690440926
16.500081273497806
13.887401193271618
11.329566511638046
8.850099610286513
6.513320035600451
4.526449852639142
3.4864866698084755
3.9794400407606023
5.6794663685349995
7.863492362487432
10.210444369069387
12.623810275890976
15.070320944258418
17.53680510658408
20.017829843063733
22.51142296141179
25.017343867336667
27.536296579690948
30.069537126108642
32.61866291719914
35.1854928856532
37.77199585526026
40.38024591499055
43.012393590474275
45.67064660406422
48.357256639723815
51.07450996954018
53.824720620165664
56.61022524221517
59.43337914049759
62.29655310732468
65.20213081940089
68.15250663648118
71.15008369213349
74.19727220274196
77.29648794598785
80.45015087793405
51.17490725409574
48.015907520426886
44.9124234687976
41.86216680890851
38.86291884353214
35.91254906288003
33.009043128354534
30.150546128436076
27.335431537082012
24.562415225530852
21.830752375343874
19.140596091412206
16.493694564469646
13.894861769849022
11.355419771712512
8.902403286966504
6.607488907870792
4.688352316610626
3.71271408551506
4.201309226657079
5.848500990695311
7.989962270768638
10.30883850653058
12.702449158225303
15.133920097929199
17.588212100366167
20.058875776668778
22.54334994284634
25.041033398140613
27.552399255158484
30.0785503304948
32.62097953172243
35.18143302583862
37.7618282397909
40.36420265964096
42.99068069385097
45.64345152675022
48.32475386998565
51.03686516011886
53.78209368789122
56.56277269863148
59.38125584066563
62.23991354976772
65.14113009322121
68.0873010860744
71.08083135194065
74.12413304170843
77.21962395220022
80.36972600725382
51.07190175535076
47.917713417869365
44.819341091571005
41.77452851926927
38.78109835407433
35.836974193176026
32.94021368430302
30.089059610665238
27.28202117814731
24.518008130378632
21.796561803362763
19.118274547582693
16.485601371839483
13.904560228901515
11.388666090033453
8.969232166447801
6.7263776097231505
4.887446863200492
3.9847475002866783
4.469583036920228
6.058296855719891
8.149502718469373
10.43392676457491
12.802830845071131
15.215300327731057
17.654096435462264
20.111542186686762
22.58435434660878
25.071485360350312
27.573120645086547
30.090171241652634
32.623998818847966
35.17625795001156
37.74880126696411
40.343620071753975
42.96280581341604
45.608524295174824
48.28299789294779
50.98849295095968
53.72731060022308
56.50177988521183
59.31425247423866
62.16709847359871
65.0627030226244
68.00346345001799
70.99178684115958
74.03008791361472
77.12078713125705
80.26630901107391
50.94603044383939
47.79772326408748
44.70560048982482
41.667445330416015
38.681131343327294
35.74464867728242
32.85614343945153
30.01397833076478
27.216828934391113
24.4638422064577
21.75490872456914
19.091154954980198
16.47589054557884
13.916575864682997
11.429310670019364
9.050291990242165
6.868576963505863
5.118970314997648
4.293933334333677
4.776252709405453
6.304528141625882
8.34011728485784
10.584729207348685
12.92443903965294
15.314179229832172
17.73430420143925
20.17575029932796
22.6344032044358
25.10869534928546
27.598474205263404
30.10442423093079
32.627751395790085
35.17000129309998
37.73294931275261
40.31853164385031
42.92880039693324
45.56589349135482
48.232013862156876
50.92941470653324
53.660388734720875
56.42726012930144
59.232378368794755
62.07811335510821
64.96685146687366
67.9009922807281
70.88294578322808
73.91512995133787
76.99996861802934
80.13988956699119
50.797308156412356
47.65595221374495
44.57121794680814
41.54093565795836
38.5630395861262
35.6355991321731
32.75686562354119
29.925344207951657
27.139907770770414
24.399983947656782
21.70587528109551
19.059335454002994
16.464670822621535
13.931005123224613
11.47736028597111
9.145243159934891
7.032570262672187
5.378479316361745
4.6329070068482485
5.114349494599641
6.582919229011379
8.55963975355306
10.760131011973726
13.066671353968427
15.430222397609363
17.82865143539607
20.25140538079991
22.693456723777512
25.152658088968934
27.628476371758122
30.121339074225695
32.63227471427382
35.162704247291934
37.71431452240981
40.28897847776715
42.888703070538945
45.51559424951496
48.17183272049192
50.85965672750888
53.5813494995937
56.33922986249831
59.135645035794816
61.972964963401395
64.85357773672979
67.77988580869948
70.75430279034856
73.779250685844
76.8571574664592
79.9904549159187
50.6257526617656
47.49241839334363
44.4162129194888
41.39502149381323
38.42684908120721
35.50985734114893
32.64241992399178
29.823207313206655
27.051320941925415
24.32651271633525
21.64955937879711
19.0229327234334
16.45207090630481
13.947961321557562
11.53282350108213
9.253710394397471
7.216804263926196
5.662020717512943
4.995693166404295
5.478075577014257
6.889455948830848
8.805833133767116
10.958919802877908
13.228853668019081
15.563049146371243
17.93692641440478
20.33839761122905
22.761468574908037
25.203367491932763
27.663146551606914
30.14095094148363
32.63761307497495
35.15441560793087
37.69294688530413
40.25500938204553
42.84255975100623
45.457668375555684
48.10249131976636
50.779250364306186
53.490218436013166
56.23770870752964
59.02406623878262
61.851661407599565
64.7228846191751
67.64014194404741
70.60585144186489
73.62244000206739
76.69234058421259
79.81798977735556
50.43138477717099
47.30714300910995
44.240608145221216
41.22972852123728
38.27259018613231
35.367460421826365
32.51285270090846
29.707626144034194
26.951142333891188
24.24352114489782
21.586075110539202
18.982082328007248
16.43823955476388
13.967574316786724
11.595710900010836
9.375292418158333
7.419745428347977
5.96617736836856
5.377569866068549
5.862726907822744
7.22049881380891
9.076470747559723
11.179821364160027
13.410254966358938
15.712238694967798
18.05889219994016
20.436603071817512
22.838386217905125
25.260816725695435
27.702507108743045
30.16330038089942
32.64381764093757
35.14519182423889
37.6689043202996
40.21668098462314
42.79042377676733
45.39216448732377
48.024032561835774
50.68823215164184
53.38702533983921
56.122719582080954
58.89765807539101
61.71421219416868
64.57477540821996
67.48175827988672
70.43758426016716
73.44468608808982
76.50550265660414
79.6224762501815
50.214228502809675
47.10015047118392
44.0444297649112
41.04508624839896
38.10029777499348
35.208451023616426
32.3682172408044
29.578667949238064
26.839456867807474
24.151115608782447
21.515553251435147
18.93693911939999
16.423345675517844
13.989990125734195
11.66603532643128
9.509571212977447
7.639920560471319
6.288045119532596
5.774853183509903
6.264535816987182
7.572824956986471
9.369397240067716
11.421531931687502
13.610101997391059
15.877336590717125
18.194289367472273
20.54588482538123
22.92415126381399
25.324998283844813
27.746583343588902
30.188433296036187
32.65094644805862
35.135097053011606
37.642252770048394
40.174057859536866
42.732356056786145
45.31913817517129
47.936505561041784
50.58664396418911
53.271804403140166
55.994288820162325
58.75643907385967
61.560628295164555
64.40925394262894
67.30473209838135
70.24949268491753
73.24597537832943
76.2966260603927
79.40389369948494
49.97431117352141
46.871468533958904
43.827707462702065
40.84112816088019
37.91001141984641
35.03287755639984
32.20857405168522
29.436409107347576
26.71636096996932
24.049416775188096
21.43814182898516
18.88767769043215
16.407578423094122
14.015370496189885
11.743812116545147
9.656120480445557
7.875943337323078
6.625179159944141
6.184681481149144
6.6805007551581275
7.94362496495765
9.682570531810832
11.682745955744117
13.827593212914051
16.057861177567986
18.342838854104258
20.666094069369315
23.018699863751706
25.39590405937505
27.795403464537273
30.216400913877166
32.659064410442454
35.12420321311917
37.613066302284594
40.12721266609795
42.66842523616684
45.23865218213311
47.83996582775754
50.474533193492796
53.144594375934
55.85244631165902
58.60043030488707
61.39092222831921
64.22632465152427
67.10906038041801
70.0415670465215
73.02629249160059
76.06569076821339
79.16221863007554
49.71166362773984
46.621128452385335
43.59047462221421
40.617891893563765
37.70177559702566
34.84079445249586
32.03399120268071
29.28093556297401
26.581963113317236
23.93856023256985
21.35400677139706
18.834492882124543
16.391147296183384
14.043892431193653
11.829059320578684
9.814513086405508
8.126529353581736
6.975531391703017
6.6048300135862075
7.108232162646207
8.330474750513156
10.014087507947004
11.962178850206854
14.061911577884722
16.253309929967337
18.504244859464144
20.797071340081846
23.12196311937539
25.473525417720367
27.848998549289252
30.247259741490236
32.66824331807437
35.11259003827611
37.5814272158285
40.07622629866502
42.598707877127694
45.1507766028535
47.73447547264154
50.351952946190046
53.00543874857258
55.6972256607815
58.429655509739376
61.20510815001731
64.02599260899692
66.89473982005597
69.81379653994732
72.78562016507766
75.81267424458385
78.89742454746309
49.426320393294276
46.34916515400939
43.33276849938416
40.375419422487305
37.475639919728444
34.63226246440343
31.844544712014105
29.112343326186565
26.436384436342312
23.818697206693145
21.26333263774071
18.777600342956145
16.37428223040837
14.075747668245778
11.921797905760043
9.984327372370679
8.39050254959536
7.337389571540011
7.033562494135795
7.545823561584919
8.731295973575534
10.362196892204203
12.258584740181218
14.312235976032861
16.46316550361437
18.67819773966486
20.938647746990775
23.233867507790077
25.557853266607946
27.907402493707263
30.28107150862369
32.67856182385255
35.10034512512766
37.54742614862484
40.02118804480434
42.523288653700924
45.05558910023878
47.620103431138126
50.21896226355645
52.85438595523529
55.52866436422541
58.244141245659165
61.00320196238155
63.80826359902528
66.66176684506107
69.56616920017535
72.52393918535182
75.53755133455147
78.60948180726133
49.11831988969395
46.05561742643426
43.05463041194301
40.113757277338266
37.23165939848748
34.40734900119834
31.640318987717382
28.93073904087595
26.27975944638732
23.689995369856074
21.166323433921274
18.717237139398893
16.35723368244291
14.111142115893646
12.022051936236988
10.165152314955838
8.6667956136603
7.709322723217819
7.469516396778782
7.99174801093648
9.14431322014719
10.725302676397659
12.570769565191744
14.577751062344587
16.68690138603695
18.86437684039803
21.09064621676304
23.354335313811262
25.64887811964813
27.97065194564695
30.317903093324578
32.69010541671258
35.08756397332659
37.5111621847483
39.96219574926829
42.442260558207224
44.95317513853026
47.496925707584495
50.075626362350135
52.69148959897129
55.346804009868094
58.04391704972805
60.78522143582123
63.57314419216452
66.4101376450348
69.29867188076248
72.24122831799698
75.24029414629123
78.29835745416935
48.78770464642837
45.74052811987179
42.75610594559622
39.832956775401314
36.969894731502336
34.16612850708296
31.42140732633505
28.736240629013817
26.11223681532897
23.552639750763564
21.063203518759316
18.65366241643203
16.34027270091087
14.150295250704733
12.12984872740607
10.35659158644376
8.954446458329002
8.090134147490664
7.911615855917406
8.444776688598655
9.568012493670766
11.101961021440513
12.897600099008546
14.857655519761664
16.92398706202971
19.06245322262849
21.25288272774396
23.48328506246467
25.746590150403645
28.038786220975837
30.357826427284117
32.702966377097454
35.0743500137824
37.47274295683914
39.89935598076787
42.35572511716421
44.843628231223406
47.36502563808215
49.92201689677674
52.51680869870573
55.151690496892904
57.82901562241423
60.55118634853102
63.32064183568251
66.1398482088851
69.01129023725375
71.93746423731078
74.92087192917842
77.96401505188354
48.43452153671739
45.40394436435557
42.437245176957944
39.53307427792078
36.690412627148724
33.908682886198086
31.18791247580824
28.52897801894811
25.93398027684284
23.40683375341389
20.954218604712967
18.587158106278075
16.323690979280684
14.19343947842641
12.245218974490992
10.558266618395038
9.252592350022365
8.478821879288194
8.35900600259661
8.903915558597589
10.001103264230524
11.490872959137256
13.238009537289171
15.151168760946288
17.173892639477135
19.272092242454235
21.425167517151518
23.620631944583387
25.850979233408715
28.11184719866188
30.400918377257096
32.71724371063667
35.06081462078855
37.432284739906855
39.83278419805639
42.263792613909324
44.72705020194021
47.22449417105253
49.758212241249275
52.3304079585769
54.943374278286065
57.599473032200095
60.30111864464853
63.050764958996695
65.85089437356126
68.70400871737849
71.61262145810315
74.57925094911653
77.60641450559663
48.058822025994886
45.04591780111594
42.098102913368415
39.21417147005274
36.393286161388346