# vtk DataFile Version 2.0
mesh vtk view
ASCII
DATASET UNSTRUCTURED_GRID
POINTS 5151 double
0.0 -0.48196302692809895 0.0
200.0 0.0 0.0
199.86751036355437 99.85526602074536 0.0
0.0 99.51884769678736 0.0
2.001559091925777 -0.4819165418438749 0.0
4.003117500614932 -0.48177710057458883 0.0
6.004674542906237 -0.48154474506898026 0.0
8.006229535790332 -0.4812195452368391 0.0
10.007781796488022 -0.4808015989417205 0.0
12.009330642529102 -0.48029103199048806 0.0
14.010875391833755 -0.47968799811943225 0.0
16.012415362795906 -0.4789926789766369 0.0
18.013949874371512 -0.4782052841001745 0.0
20.015478246171483 -0.4773260508916476 0.0
22.016999798557464 -0.476355244584501 0.0
24.01851385274324 -0.4752931582064387 0.0
26.020019730901254 -0.47414011253519306 0.0
28.02151675627844 -0.47289645604679786 0.0
30.023004253316703 -0.47156256485541115 0.0
32.02448154777827 -0.4701388426436369 0.0
34.02594796688204 -0.4686257205821629 0.0
36.02740283944775 -0.46702365723743705 0.0
38.02884549604863 -0.4653331384659482 0.0
40.03027526917341 -0.46355467729358113 0.0
42.031691493397815 -0.4616888137783366 0.0
44.03309350556628 -0.4597361148545844 0.0
46.03448064498369 -0.4576971741568396 0.0
48.03585225361801 -0.45557261182089503 0.0
50.037207676313415 -0.4533630742599619 0.0
52.03854626101438 -0.4510692339132679 0.0
54.03986735900077 -0.4486917889643883 0.0
56.04117032513351 -0.44623146302633865 0.0
58.042454518111086 -0.4436890047902541 0.0
60.04371930073625 -0.4410651876342404 0.0
62.04496404019247 -0.4383608091887046 0.0
64.04618810833244 -0.4355766908542178 0.0
66.04739088196852 -0.4327136772676806 0.0
68.04857174316922 -0.4297726357122359 0.0
70.04973007957702 -0.42675445546600865 0.0
72.05086528471642 -0.4236600470844827 0.0
74.05197675830917 -0.4204903416108483 0.0
76.05306390659003 -0.41724628970828714 0.0
78.05412614262129 -0.41392886070767665 0.0
80.05516288660272 -0.41053904156371634 0.0
82.05617356617401 -0.4070778357119199 0.0
84.05715761670629 -0.40354626181829256 0.0
86.0581144815781 -0.3999453524128692 0.0
88.05904361243189 -0.3962761523974798 0.0
90.05994446940522 -0.3925397174172796 0.0
92.06081652133122 -0.3887371120845887 0.0
94.06165924590175 -0.38486940804245273 0.0
96.06247212978568 -0.3809376818540549 0.0
98.06325466869454 -0.37694301270260944 0.0
100.064006367386 -0.3728864798845995 0.0
102.06472673959537 -0.3687691600772106 0.0
104.06541530788361 -0.36459212435836175 0.0
106.06607160338919 -0.36035643495493674 0.0
108.06669516546934 -0.3560631416913953 0.0
110.06728554121472 -0.3517132781069616 0.0
112.06784228482036 -0.34730785720475577 0.0
114.06836495679084 -0.3428478667904843 0.0
116.06885312295788 -0.3383342643513622 0.0
118.0693063532833 -0.3337679714175774 0.0
120.0697242204167 -0.3291498673384644 0.0
122.07010629797405 -0.3244807823932584 0.0
124.07045215849436 -0.3197614901412956 0.0
126.07076137102793 -0.31499269889819387 0.0
128.07103349830527 -0.31017504220202835 0.0
130.07126809340156 -0.30530906810584546 0.0
132.07146469582534 -0.30039522709850686 0.0
134.07162282696913 -0.2954338584131574 0.0
136.07174198474533 -0.29042517442960003 0.0
138.07182163730084 -0.28536924280979387 0.0
140.07186121562313 -0.28026596592136793 0.0
142.07186010482016 -0.2751150569967269 0.0
144.07181763379467 -0.2699160123380068 0.0
146.07173306296772 -0.26466807870107656 0.0
148.07160556960585 -0.2593702147616257 0.0
150.0714342301833 -0.25402104526454516 0.0
152.07121799904556 -0.24861880605815495 0.0
154.07095568241198 -0.24316127768017226 0.0
156.07064590645345 -0.23764570443889255 0.0
158.07028707776024 -0.23206869494216936 0.0
160.06987733393393 -0.22642609865133906 0.0
162.06941448121177 -0.22071285110001976 0.0
164.068895914861 -0.21492277764547432 0.0
166.06831851636304 -0.20904834158321312 0.0
168.0676785188783 -0.20308031646229047 0.0
170.06697132864224 -0.19700735335013686 0.0
172.06619128401894 -0.19081539967872277 0.0
174.06533132451452 -0.18448690379990124 0.0
176.06438252668767 -0.1779997023202364 0.0
178.0633334377997 -0.17132542459897954 0.0
180.06216909279303 -0.16442713588937868 0.0
182.06086951370577 -0.15725574189168415 0.0
184.0594073396313 -0.1497442297380296 0.0
186.057743824064 -0.1417982081728037 0.0
188.05582201902251 -0.1332779844395947 0.0
190.05355182214382 -0.12396979920262044 0.0
192.05078574090933 -0.1134892136355654 0.0
194.04719246615036 -0.10124917618025805 0.0
196.04210867398035 -0.08508634845110197 0.0
198.03145295384027 -0.06494901241612394 0.0
200.02486153972526 1.9543051219405199 0.0
200.02657055510602 3.934250230726468 0.0
200.0280649238335 5.9229666621057815 0.0
200.02758616394638 7.9149081406071895 0.0
200.026341218096 9.908655942177376 0.0
200.02456461026958 11.903529478393288 0.0
200.02244086867552 13.899188157942849 0.0
200.0200664936366 15.895426271939733 0.0
200.01750486297385 17.892111779210882 0.0
200.01479815199195 19.889154458517606 0.0
200.01197597309508 21.886490094507003 0.0
200.00905968683838 23.88407140278419 0.0
200.0060650553192 25.88186260218385 0.0
200.0030038864506 27.8798359835054 0.0
199.99988511314288 29.877969657034882 0.0
199.99671552493018 31.87624602323306 0.0
199.99350028019543 33.874650704950646 0.0
199.99024327449055 35.87317178350413 0.0
199.9869474118106 37.871799240444226 0.0
199.98361480875147 39.87052454184457 0.0
199.980246951252 41.86934032347631 0.0
199.9768448172262 43.86824014870975 0.0
199.9734089742845 45.86721831971482 0.0
199.9699396590447 47.8662697283008 0.0
199.966436842723 49.86538973662899 0.0
199.96290028645944 51.86457408071039 0.0
199.9593295889761 53.863818791476135 0.0
199.95572422856773 55.86312012954381 0.0
199.95208360100344 57.86247453076961 0.0
199.94840705462124 59.86187856038875 0.0
199.9446939236938 61.86132887408215 0.0
199.94094356100632 63.86082218472268 0.0
199.93715537050386 65.86035523388067 0.0
199.93332884082474 67.85992476741214 0.0
199.9294635805311 69.8595275148216 0.0
199.92555935587606 71.85916017214227 0.0
199.92161613200338 73.8588193884883 0.0
199.91763411855837 75.85850175667565 0.0
199.91361382079305 77.85820380871591 0.0
199.90955609735914 79.85792201753424 0.0
199.905462226069 81.85765280706632 0.0
199.9013339788915 83.85739257412128 0.0
199.89717370716346 85.85713772736933 0.0
199.8929844370112 87.85688475211447 0.0
199.88876997220714 89.85663031531203 0.0
199.88453499417972 91.85637143601275 0.0
199.88028512744563 93.85610576720526 0.0
199.8760268709256 95.8558320735366 0.0
199.87176706233416 97.85555102879205 0.0
197.86741537157883 99.85101130342824 0.0
195.867316416634 99.84675969130062 0.0
193.86721012292955 99.84250650153118 0.0
191.86709586079337 99.83824486645075 0.0
189.86697495502057 99.83396827540619 0.0
187.8668498875137 99.8296711434836 0.0
185.86672380963168 99.82534891078159 0.0
183.86660024395354 99.82099800227213 0.0
181.86648289362589 99.81661574717982 0.0
179.86637551513653 99.81220028986237 0.0
177.86628183056092 99.80775050307204 0.0
175.8662054656307 99.8032659071046 0.0
173.86614990547244 99.79874659561067 0.0
171.86611846293806 99.79419316785386 0.0
169.8661142562364 99.78960666688941 0.0
167.86614019365877 99.78498852309137 0.0
165.86619896385903 99.78034050251024 0.0
163.86629303057595 99.77566465962126 0.0
161.86642463096075 99.77096329410179 0.0
159.86659577685617 99.76623891134085 0.0
157.86680825849896 99.76149418643452 0.0
155.86706365020254 99.7567319314571 0.0
153.86736331764516 99.75195506582311 0.0
151.86770842643134 99.7471665895708 0.0
149.8680999516398 99.74236955940701 0.0
147.86853868810027 99.73756706735786 0.0
145.86902526117325 99.73276222187107 0.0
143.86956013783248 99.72795813121617 0.0
141.87014363787475 99.723157889028 0.0
139.87077594510694 99.71836456183911 0.0
137.87145711837897 99.7135811784467 0.0
135.87218710235527 99.7088107209619 0.0
133.87296573793432 99.70405611739106 0.0
131.87379277224545 99.6993202356034 0.0
129.87466786816614 99.69460587854387 0.0
127.87559061332006 99.68991578055622 0.0
125.87656052852041 99.68525260468823 0.0
123.8775770756772 99.68061894085834 0.0
121.87863966510454 99.67601730477115 0.0
119.87974766226473 99.67145013747752 0.0
117.8809003939658 99.66691980548315 0.0
115.88209715401138 99.66242860131861 0.0
113.88333720832736 99.65797874449122 0.0
111.88461979959006 99.65357238274798 0.0
109.8859441513801 99.64921159358605 0.0
107.88730947189143 99.64489838595465 0.0
105.88871495722381 99.64063470209928 0.0
103.89015979428852 99.63642241950525 0.0
101.8916431633565 99.63226335290375 0.0
99.89316424027824 99.62815925630865 0.0
97.89472219840349 99.6241118250576 0.0
95.89631621022812 99.62012269783499 0.0
93.89794544879412 99.61619345865833 0.0
91.89960908886742 99.61232563881345 0.0
89.90130630791654 99.60852071872642 0.0
87.90303628691377 99.60478012976344 0.0
85.90479821097938 99.60110525595158 0.0
83.90659126988642 99.59749743561608 0.0
81.90841465844453 99.59395796293082 0.0
79.91026757677707 99.5904880893807 0.0
77.91214923050666 99.58708902513553 0.0
75.91405883086121 99.58376194033603 0.0
73.91599559471294 99.58050796629382 0.0
71.91795874455477 99.5773281966071 0.0
69.91994750844071 99.57422368819529 0.0
67.92196111989036 99.5711954622554 0.0
65.92399881773102 99.56824450514374 0.0
63.92605984594124 99.56537176918651 0.0
61.92814345346705 99.56257817342312 0.0
59.93024889402236 99.55986460428616 0.0
57.932375425878675 99.55723191622158 0.0
55.93452231164716 99.55468093225332 0.0
53.93668881805662 99.55221244449568 0.0
51.93887421573022 99.54982721461754 0.0
49.941077778962324 99.54752597426157 0.0
47.94329878549846 99.54530942542219 0.0
45.94553651631926 99.5431782407851 0.0
43.94779025542944 99.54113306403197 0.0
41.9500592896534 99.53917451011286 0.0
39.952342908437814 99.53730316548922 0.0
37.95464040366149 99.53551958835017 0.0
35.95695106945351 99.53382430880436 0.0
33.9592742020194 99.53221782904978 0.0
31.96160909947534 99.53070062352357 0.0
29.963955061690687 99.52927313903376 0.0
27.966311390138664 99.52793579487489 0.0
25.968677387754788 99.526688982929 0.0
23.971052358802712 99.5255330677536 0.0
[...]
POINT_DATA 5151
SCALARS DISPL_X float 1
LOOKUP_TABLE default
0.0
0.0
-0.1324896364456135
0.0
0.0015590919336889405
0.003117500630622745
0.0046745429297877835
0.006229535822229265
0.007781796528522521
0.009330642577972415
0.010875391890116213
0.012415362859105931
0.01394987444154223
0.015478246248333528
0.016999798641144336
0.01851385283399982
0.020019731000603846
0.02151675638792152
0.023004253436565866
0.024481547908512917
0.0259479670226652
0.027402839598748494
0.028845496210011243
0.030275269345164765
0.031691493579965924
0.033093505758804945
0.03448064518660785
0.035852253831309355
0.03720767653708289
0.03854626124843684
0.039867359245201545
0.04117032538832585
0.04245451837629187
0.04371930101182403
0.04496404047842829
0.04618810862612855
0.0473908822655848
0.048571743469581166
0.04973007988065316
0.05086528502334782
0.051976758619364224
0.05306390690350596
0.054126142938046594
0.05516288692274179
0.0561735664973243
0.05715761703287287
0.058114481907970555
0.059043612765035905
0.05994446974163056
0.060816521670916085
0.06165924624472603
0.06247213013195218
0.06325466904408664
0.0640063677388112
0.06472673995146448
0.06541530824302355
0.06607160375189021
0.06669516583523764
0.06728554158391198
0.06784228519285543
0.06836495716664709
0.06885312333697875
0.06930635366559582
0.069724220802307
0.07010629836294772
0.07045215888646647
0.07076137142332878
0.07103349869887172
0.07126809378463936
0.07146469619756315
0.07162282733034703
0.07174198509562471
0.07182163764013225
0.07186121595154976
0.07186010513757764
0.07181763410115355
0.07173306326332535
0.07160556989042798
0.07143423045691497
0.07121799930825132
0.07095568266375832
0.0706459066942497
0.07028707799015815
0.06987733415284031
0.06941448141976415
0.06889591505799707
0.06831851654913809
0.06767851905338956
0.06697132880642603
0.06619128417213971
0.06533132465683528
0.06438252681904658
0.06333343792011405
0.06216909290253961
0.060869513804273884
0.05940733971889266
0.057743824140728275
0.05582201908822028
0.053551822198532474
0.050785740953124804
0.04719246618327505
0.042108674002258685
0.03145295385117246
0.024861539725257772
0.02657055510600778
0.028064923833500052
0.02758616394637099
0.026341218096019695
0.02456461026957934
0.022440868675514935
0.020066493636585695
0.01750486297385362
0.014798151991960839
0.011975973095068423
0.00905968683837508
0.0060650553191882745
0.0030038864506254266
-0.00011488685711490471
-0.003284475069832148
-0.006499719804553322
-0.009756725509461203
-0.013052588189401585
-0.01638519124852945
-0.019753048747991837
-0.02315518277378328
-0.026591025715490775
-0.03006034095530007
-0.033563157276988685
-0.03709971354054528
-0.04067041102391701
-0.044275771432280245
-0.047916398996567314
-0.051592945378762925
-0.05530607630619952
-0.05905643899369152
-0.06284462949614558
-0.06667115917526234
-0.07053641946891265
-0.07444064412394359
-0.0783838679966199
-0.08236588144163813
-0.08638617920696537
-0.09044390264084792
-0.09453777393098783
-0.09866602110849537
-0.10282629283654907
-0.1070155629887945
-0.11123002779285575
-0.11546500582027551
-0.119714872554365
-0.12397312907439303
-0.12823293766583135
-0.1325846284353695
-0.13268358339438774
-0.13278987711306478
-0.13290413926341615
-0.1330250450505417
-0.13315011257158565
-0.13327619046783346
-0.13339975616014504
-0.13351710650201362
-0.13362448500557023
-0.13371816959537333
-0.13379453453987963
-0.13385009471235199
-0.1338815372609476
-0.13388574397679182
-0.13385980656862992
-0.13380103638257057
-0.13370696967983875
-0.1335753693092615
-0.1334042234280169
-0.13319174179955548
-0.1329363501101552
-0.13263668268173878
-0.1322915739097445
-0.13190004871549987
-0.13146131226923458
-0.13097473921044653
-0.13043986256550713
-0.12985636253744987
-0.129224055319471
-0.1285428820616278
-0.1278128980995432
-0.1270342625346558
-0.12620722823775454
-0.12533213233127427
-0.12440938719114265
-0.12343947199587321
-0.1224229248391023
-0.12136033541175373
-0.12025233825155421
-0.11909960655049719
-0.11790284650502228
-0.1166627921890388
-0.1153802009263376
-0.11405584913629638
-0.11269052862497353
-0.11128504329258554
-0.10984020622787477
-0.10835683715989226
-0.10683576023815733
-0.10527780211292126
-0.10368379028830449
-0.10205455172229812
-0.10039091164899719
-0.0986936925999039
-0.0969637136026571
-0.0952017895370889
-0.09340873063004765
-0.09158534207193618
-0.0897324237393774
-0.08785077000982558
-0.08594116965528527
-0.08400440580355832
-0.08204125595662476
-0.0800524920568918
-0.0780388805930464
-0.07600118273816707
-0.07394015451371035
-0.07185654697369416
-0.0697511064041574
-0.06762457453363144
-0.06547768875094678
-0.06331118232723051
-0.06112578463942967
-0.05892222139312031
-0.056701214842742056
-0.054463484007733085
-0.05220974488333987
-0.04994071064513694
-0.047657091846518465
-0.045359596608628816
-0.04304893080236871
-0.04072579822226853
-0.038390900752147884
-0.036044938522592385
-0.03368861006037667
-0.031322612430042696
-0.02894764136790587
-0.02656439140882847
-0.02417355600614156
-0.021775827645136542
-0.019371897950583
-0.016962457788754055
-0.014548197364462712
-0.012129806313631739
-0.009707973791930245
-0.0072833885600219195
-0.004856739065981695
-0.0024287135254366446
0.0
0.0
0.0
0.0
0.0
0.0
0.0
0.0
0.0
0.0
0.0
0.0
0.0
0.0
0.0
0.0
0.0
0.0
0.0
0.0
0.0
0.0
0.0
0.0
0.0
0.0
0.0
0.0
0.0
0.0
0.0
0.0
0.0
0.0
0.0
0.0
0.0
0.0
0.0
0.0
0.0
0.0
0.0
0.0
0.0
0.0
0.0
0.0
0.0
0.001466910762723114
0.0013762565656614697
0.001287064578827391
0.0011992702886099986
0.0011128094151370744
0.0010276178941289677
0.0009436318572732446
0.0008607876114485627
0.0007790216171143426
0.0006982704661699226
0.0006184708595694988
0.0005395595849660763
0.00046147349463860157
0.00038414948394058197
0.0003075244704899046
0.00023153537430091253
0.00015611909904402166
8.1212514597718e-05
6.752441041985928e-06
-6.732436577748582e-05
-0.00014108122699851613
-0.0002145815517094555
-0.0002878888460518754
-0.00036106672039548426
-0.00043417889453409287
-0.0005072892008675311
-0.0005804615855487268
-0.0006537601075902282
-0.0007272489359377092
-0.0008009923445321061
-0.0008750547053939068
-0.000949500479781084
-0.0010243942074819553
-0.001099800494322974
-0.0011757839979791747
-0.0012524094121981611
-0.0013297414495580752
-0.0014078448228999555
-0.0014867842255872439
-0.0015666243107665921
-0.0016474296698192586
-0.001729264810211115
-0.0018121941329686622
-0.0018962819100253156
-0.001981592261703401
-0.0020681891346143264
-0.0021561362802782376
-0.002245497234783191
-0.0023363352998187975
0.002933166168161084
0.0027518854850846442
0.0025735290634833125
0.0023979678871665884
0.0022250734087543404
0.002054717513136951
0.0018867724779842994
0.001721110931963182
0.0015576058112973133
0.0013961303152769393
0.0012365578612934106
0.0010787620399440713
0.0009226165707173894
0.0007679952587337699
0.0006147719529826334
0.0004628205064580649
0.0003120147385618756
0.00016222840010529492
1.3335141206132589e-05
-0.0001347915176614763
-0.00028227821122934056
-0.00042925175142509127
-0.0005758391456203803
-0.0007221676110125881
-0.0008683645850405647
-0.0010145577317595756
-0.0011608749441392539
-0.0013074443422706197
-0.0014543942674968393
-0.0016018532725123355
-0.0017499501074983016
-0.0018988137023938905
-0.0020485731454302136
-0.002199357658081382
-0.0023512965666123696
-0.0025045192704423766
-0.002659155207566309
-0.002815333817310508
-0.002973184500732629
-0.0031328365790103917
-0.0032944192501980045
-0.0034580615447665805
-0.003623892280381055
-0.0037920400164053246
-0.003962633008662854
-0.004135799165019177
-0.004311666002392131
-0.004490360605824869
-0.0046720095902976705
0.004398110931273456
0.004126259179603727
0.0038587934216859385
0.0035955201609739907
0.003336246607465584
0.0030807806222711252
0.0028289306577764014
0.0025805056943919054
0.002335315174843284
0.00209316893691437
0.001853877145510098
0.0016172502248563586
0.001383098791603924
0.00115123358954988
0.0009214654266368628
0.0006936051148344999
0.00046746341345518984
0.00024285097640061788
1.9578303782670332e-05
-0.0002025443016948051
-0.00042370677324421853
-0.000644099313112074
-0.0008639124200611333
-0.0010833369110243526
-0.001302563936782021
-0.0015217849915570168
-0.0017411919164686362
-0.001960976896827368
-0.0021813324532920543
-0.002402451426955391
-0.002624526958462834
-0.00284775246131143
-0.003072321589517049
-0.0032984281998840754
-0.003526266309143329
-0.0037560300462873954
-0.003987913600463852
-0.00422211116484059
-0.00445881687690681
-0.00469822475572435
-0.004940528636697393
-0.005185922104483161
-0.005434598424722622
-0.005686750475326425
-0.005942570678108333
-0.006202250931617633
-0.006465982546075267
-0.006733956181374146
-0.00700636178915572
0.005861089912014396
0.005498750206132394
0.005142257745298926
0.004791354586352653
0.00444578373439075
0.00410528906769658
0.003769615256832581
0.003438507679227737
0.003111712330536192
0.002788975733988432
0.00247004484889329
0.0021546669793846875
0.0018425896844353668
0.001533560690090792
0.001227327804803907
0.0009236388386769149
0.0006222415273435699
0.0003228834611542136
2.5312020252794797e-05
-0.000270725683940706
-0.0005654828603791098
-0.0008592130827961679
-0.0011521703265499126
-0.0014446089976445128
-0.001736783953736074
-0.002028950516984155
-0.0023213644786705687
-0.002614282095561149
-0.002907960078043043
-0.0032026555701225668
-0.003498626121425295
-0.003796129651392351
-0.004095424405923138
-0.00439676890677562
-0.004700421894075528
-0.0050066422623723
-0.0053156889907195705
-0.005627821067329443
-0.005943297409416995
-0.006262376778918003
-0.006585317694835064
-0.006912378343040209
-0.007243816484437397
-0.007579889362464584
-0.007920853610992009
-0.008266965163751671
-0.008618479166506078
-0.008975649893241228
-0.009338730667736566
0.007321448189091549
0.006868731326038786
0.006423322313317678
0.005984898806897642
0.005553139658005367
0.005127724817407751
0.004708335232465919
0.004294652738631146
0.003886359946987084
0.0034831401293720574
0.003084677102535188
0.002690655112696343
0.0023007587217914773
0.0019146726965962155
0.001532081901827754
0.0011526711982328887
0.0007761253465785679
0.0004021289183683925
3.0366214020132204e-05
-0.00033947881085707993
-0.0007077226105103988
-0.0010746821049541278
-0.0014406747263432762
-0.001806018455490141
-0.002171031848285295
-0.002536034051853465
-0.002901344810346586
-0.0032672844603467144
-0.0036341739159198765
-0.004002334643428273
-0.004372088626276007
-0.004743758319830747
-0.005117666596832597
-0.005494136683675468
-0.005873492087998596
-0.006256056518130274
-0.006642153794977746
-0.007032107757046798
-0.007426242159354805
-0.007824880567088873
-0.008228346244948542
-0.008636962043203616
-0.009051050281594746
-0.009470932632299315
-0.009896930003283736
-0.010329362423459042
-0.010768548931156273
-0.011214807467529652
-0.011668454776587463
0.00877853113523527
0.008235575575317344
0.007701387655947738
0.007175580690632222
0.006657769441699627
0.00614757000267764
0.005644599672089094
0.005148476820688681
0.004658820754079017
0.004175251572554285
0.003697390029926994
0.0032248573929832295
0.0027572753031120576
0.0022942656415398787
0.0018354503994907137
0.0013804515544818927
0.0009288909538501703
0.0004803902064942136
3.4570583712869045e-05
-0.00040894707010299817
-0.0008505424162368552
-0.001290595689321131
-0.001729487753449034
-0.002167600146342844
-0.002605315111294809
-0.003043015616685043
-0.003481085362960312
-0.003919908777043816
-0.004359870994226821
-0.004801357827671477
-0.00524475572573521
-0.0056904517174042706
-0.006138833346208213
-0.00659028859307511
-0.007045205788645627
-0.007503973515693034
-0.007966980502355083
-0.008434615506991481
-0.008907267195577774
-0.009385324012649953
-0.009869174046921565
-0.010359204892805313
-0.010855803509186595
-0.011359356076914741
-0.011870247856594317
-0.012388863048379582
-0.012915584655594475
-0.013450794354114915
-0.013994872369562636
0.010231684494481207
0.009598656336488235
0.00897585462013396
0.00836282838834954
0.007759128394278554
0.007164306960217861
0.006577917826683741
0.005999515993980577
0.005428657558550778
0.0048648995462784355
0.004307799744799815
0.0037569165367537447
0.0032118087357764957
0.0026720354269142233
0.002137155812993403
0.001606729068359608
0.001080314201257211
0.0005574699259966209
3.7754545927583126e-05
-0.00047927415190317224
-0.0009940589896139003
-0.001507043478239625
-0.0020186718838239495
-0.002529389279421481
-0.003039641582683825
-0.0035498755788043665
-0.004060538928693831
-0.004572080162355177
-0.005084948657517719
-0.005599594603683492
-0.006116468951829682
-0.006636023350101449
-0.007158710065924064
-0.007684981895064842
-0.008215292058244988
-0.008750094086047109
-0.009289841692933957
-0.009834988641317672
-0.010385988596734645
-0.01094329497529832
-0.011507360784730292
-0.012078638460399877
-0.01265757969793703
-0.013244635284123939
-0.013840254927909804
-0.01444488709353681
-0.015058978837907225
-0.015682975654460942
-0.01631732132596622
0.011680254461961814
0.010957347412647169
0.010246124436894006
0.009546070393428622
0.008856672121625865
0.008177418275214794
0.007507799144883302
0.0068473064725235976
0.0061954332597460565
0.0055516735731604904
0.004915522348786621
0.00428647519781129
0.0036640282157612315
0.003047677797007196
0.0024369204563589254
0.0018312526593583498
0.0012301706627241948
0.0006331703662474026
3.9747177294827634e-05
-0.0005506041110841093
-0.0011383894275504443
-0.0017241155146564564
-0.0023082900051988446
-0.0028914214822611953
-0.0034740195225828234
-0.004056594723003699
-0.0046396587098472015
-0.005223724131207864
-0.005809304632217368
-0.0063969148134629585
-0.006987070172837024
-0.00758028703119701
-0.008177082442319943
-0.00877797408775094
-0.009383480157222828
-0.009994119215489433
-0.010610410056490778
-0.011232871545914184
-0.011862022453341897
-0.012498381275312276
-0.013142466050770005
-0.013794794170526838
-0.014455882182513237
-0.015126245594762307
-0.015806398678230898
-0.016496854271730338
-0.017198123591406614
-0.017910716047372544
-0.018635139070256483
0.013123587766705826
0.012311023104086532
0.011511598790803509
0.010724735603404591
0.009949856579749325
0.009186386825401826
0.008433753307776194
0.007691384641152351
0.006958710865547384
0.006235163222274448
0.005520173928864412
0.004813175955856862
0.0041136028077938
0.0034208883105757955
0.0027344664071593363
0.002053770963397717
0.0013782355856538039
0.0007072934516386179
4.0377155763408265e-05
-0.0006230814298867016
-0.0012836512779614599
-0.001941902310851382
-0.0025984054876115933
-0.0032537328722724093
-0.003908457683141948
-0.0045631543228287046
-0.0052183983888382185
-0.005874766664712445
-0.006532837091799187
-0.007193188721848641
-0.00785640165074857
-0.008523056933821944
-0.009193736483225134
-0.009869022948109325
-0.010549499578299612
-0.011235750072420374
-0.011928358411489181
-0.012627908679157054
-0.013334984869918031
-0.014050170686763815
-0.014774049329924871
-0.015507203278510353
-0.01625021406703423
-0.01700366205900118
-0.017768126219917815
-0.01854418389228253
-0.01933241057530418
-0.020133379712291267
-0.020947662488840828
0.014561031757933555
0.013659058287899194
0.012771679891971754
0.011898253383561444
0.011038138129412218
0.010190695826315863
0.009355290264527286
0.008531287081388412
0.007718053508509707
0.006914958115684773
0.00612137055453023
0.005336661304649338
0.004560201424922363
0.0037913623123243057
0.0030295154704672797
0.0022740322898655205
0.0015242838417195007
0.0007796406868241172
3.947270101544312e-05
-0.0006968510816287146
-0.0014299626067479719
-0.002160494917961675
-0.0028890822546987294
-0.0036163601290229953
-0.004342965381028933
-0.005069536212521932
-0.005796712198830407
-0.00652513427872458
-0.0072554447225435525
-0.007988287078752085
-0.008724306099272217
-0.009464147644054241
-0.010208458565477016
-0.010957886573302288
-0.011713080081005807
-0.012474688034499542
-0.01324335972435948
-0.014019744582848555
-0.014804491967178868
-0.015598250930633328
-0.016401669983346308
-0.017215396844736195
-0.018040078189782142
-0.01887635939154597
-0.019724884262557175
-0.020586294797897378
-0.021461230923044285
-0.02235033024975674
-0.02325422784350307
0.015991934495330512
0.015000828500967948
0.014025770550833963
0.01306605363280569
0.012120973592545523
0.011189828877873297
0.010271920268901343
0.009366550597839422
0.008473024462196069
0.007590647934900533
0.00671872827466089
0.005856573639654486
0.005003492807420847
0.004158794903601892
0.003321789141943087
0.002491784577742703
0.001668089876715032
0.0008500131010130743
3.6861513948818255e-05
-0.0007720585952743293
-0.0015774420656465443
-0.0023799849963335976
-0.0031803848557699693
-0.0039793405672575045
-0.004777552570620276
-0.0055757228596208614
-0.006374554994981959
-0.007174754092999705
-0.007977026789864795
-0.008782081181939523
-0.00959062674236806
-0.010403374214524275
-0.011221035482934908
-0.012044323422461447
-0.012873951726626007
-0.013710634716174095
-0.01455508712907513
-0.015408023893350954
-0.01627015988429236
-0.017142209667815735
-0.018024887231912288
-0.01891890570835185
-0.019824977087032535
-0.020743811925596836
-0.02167611905717997
-0.02262260529940696
-0.023583975168006997
-0.024560930598668932
-0.025554170681017147
0.017415644843777688
0.01633571002673382
0.015273274256077921
0.014227566852065644
0.013197820310619437
0.012183270012388173
0.011183153916760967
0.010196712245158196
0.009223187157711525
0.008261822427216618
0.007311863114002715
0.006372555245114777
0.005443145500950679
0.004522880912238037
0.0036110085699788998
0.002706775350737602
0.0018094276593965677
0.0009182111912639636
3.237071518501674e-05
-0.000848850120936769
-0.00172620896096077
-0.0026004648866995066
-0.003472378538649017
-0.004342712210626008
-0.005212229917849897
-0.00608169743816686
-0.006951882326266368
-0.007823553900888309
-0.008697483205157104
-0.009574442940316287
-0.01045520737327366
-0.011340552218499255
-0.012231254494958406
-0.013128092358916259
-0.014031844913555632
-0.01494329199657142
-0.01586321394702158
-0.016792391352913057
-0.01773160478119143
-0.018681634492005834
-0.01964326013934156
-0.020617260460347498
-0.021604412955932253
-0.02260549356546347
-0.02362127633867909
-0.02465253310819817
-0.025700033166309803
-0.02676454295000632
-0.027846825738520126
0.01883151257300402
0.017663079986124774
0.016513595256004272
0.015382224215443448
0.014268136205138643
0.013170503744138053
0.012088502184595899
0.01102130935557602
0.009968105200415649
0.008928071411900466
0.00790039106922933
0.006884248280467728
0.0058788278339052
0.004883314861439847
0.0038968945168304315
0.002918751671371626
0.001948070629271954
0.0009840348647480613
2.582678259077968e-05
-0.0009273724963073146
-0.001876383323149199
-0.002822027682137197
-0.003765129323222517
-0.004706513866050753
-0.0056470088746315315
-0.006587443902433895
-0.007528650507769045
-0.008471462239475027
-0.009416714593061962
-0.010365244937620408
-0.011317892413933014
-0.012275497804369179
-0.013238903375285632
-0.01420895269281432
-0.015186490413030971
-0.016172362047727755
-0.01716741370713886
-0.018172491821176025
-0.019188442840934565
-0.020216112922453282
-0.02125634759494639
-0.02230999141598382
-0.023377887616368474
-0.02446087773774725
-0.025559801266296645
-0.0266754952661376
-0.02780879401646212
-0.028960528656681066
-0.03013152684423541
0.020238888462618468
0.01898231643301164
0.017746138643606253
0.016529457644330968
0.015331379840404145
0.014151015120565344
0.01298747646912243
0.011839879567010127
0.010707342386783001
0.009588984786168459
0.008483928104500498
0.007391294766039102
0.006310207893861214
0.005239790937686119
0.004179167318680752
0.0031274600939750876
0.002083791643314738
0.0010472833799820482
1.7055487836285377e-05
-0.0010077733139663794
-0.002028085977204396
-0.0030447673007239144
-0.004058704075591302
-0.005070785198607979
-0.006081901753719487
-0.007092947061030712
-0.008104816693308765
-0.009118408460008245
-0.010134622359006914
-0.01115436049638121
-0.012178526974694927