# vtk DataFile Version 2.0
mesh vtk view
ASCII
DATASET UNSTRUCTURED_GRID
POINTS 5151 double
0.0 -4.980284611590356 0.0
200.0 0.0 0.0
198.63094042339532 98.50441554770201 0.0
0.0 95.0280928668027 0.0
2.016110616640207 -4.97980426572004 0.0
4.032214173167412 -4.978363372604084 0.0
6.0483036102509224 -4.975962365712796 0.0
8.06437187013114 -4.972601967447337 0.0
10.080411897420898 -4.968283189064445 0.0
12.096416639923513 -4.963007330568376 0.0
14.112379049474841 -4.956775980567467 0.0
16.12829208281423 -4.949591016091915 0.0
18.144148702492572 -4.94145460236847 0.0
20.159941877822597 -4.932369192547025 0.0
22.17566458587481 -4.922337527373177 0.0
24.191309812527237 -4.9113626347998665 0.0
26.206870553573555 -4.899447829530329 0.0
28.22233981589904 -4.886596712483579 0.0
30.237710618724652 -4.872813170172582 0.0
32.25297599492439 -4.8581013739842485 0.0
34.26812899242692 -4.842465779349016 0.0
36.283162675702734 -4.82591112478685 0.0
38.29807012734207 -4.808442430814798 0.0
40.312844449728274 -4.790064998700338 0.0
42.327478766810835 -4.770784409042811 0.0
44.34196622598179 -4.750606520164038 0.0
46.356300000058695 -4.729537466287343 0.0
48.370473289376896 -4.707583655482582 0.0
50.38447932399285 -4.684751767352941 0.0
52.398311365999795 -4.661048750437102 0.0
54.41196271195599 -4.63648181929868 0.0
56.42542669542455 -4.611058451272166 0.0
58.43869668962314 -4.584786382832625 0.0
60.45176611017994 -4.557673605553818 0.0
62.464628417991136 -4.529728361616614 0.0
64.4772771221763 -4.500959138826917 0.0
66.48970578311398 -4.471374665099367 0.0
68.50190801555198 -4.440983902359771 0.0
70.51387749179645 -4.409796039815423 0.0
72.52560794493434 -4.377820486539655 0.0
74.5370931720899 -4.345066863312098 0.0
76.54832703768942 -4.3115449936523005 0.0
78.55930347670972 -4.277264893979325 0.0
80.57001649788164 -4.242236762825069 0.0
82.58046018681571 -4.206470969023172 0.0
84.5906287090131 -4.169978038789024 0.0
86.60051631271917 -4.1327686415996485 0.0
88.61011733157223 -4.094853574773959 0.0
90.61942618699376 -4.056243746645222 0.0
92.62843739025978 -4.0169501582074165 0.0
94.63714554418586 -3.976983883105345 0.0
96.64554534435057 -3.9363560458252342 0.0
98.65363157977268 -3.895077797926964 0.0
100.66139913294823 -3.8531602921408616 0.0
102.66884297914237 -3.810614654131176 0.0
104.6759581848185 -3.7674519517030713 0.0
106.68273990507349 -3.723683161201013 0.0
108.68918337993155 -3.6793191308110846 0.0
110.69528392933123 -3.6343705404386037 0.0
112.70103694662035 -3.5888478577824765 0.0
114.70643789034621 -3.5427612901683374 0.0
116.711482274103 -3.496120731630743 0.0
118.7161656541622 -3.4489357046483002 0.0
120.72048361457158 -3.4012152958307986 0.0
122.72443174936157 -3.3529680847303363 0.0
124.72800564143472 -3.3042020647933876 0.0
126.73120083764566 -3.2549245552813364 0.0
128.73401281949475 -3.205142102754293 0.0
130.73643696872483 -3.15486037042707 0.0
132.7384685270026 -3.1040840133512377 0.0
134.74010254871905 -3.0528165369359597 0.0
136.74133384563783 -3.0010601357725335 0.0
138.74215692194207 -2.9488155090345365 0.0
140.7425658978376 -2.8960816478541354 0.0
142.74255441943757 -2.8428555889661777 0.0
144.74211555207208 -2.7891321274927368 0.0
146.74124165342542 -2.7349034799111243 0.0
148.7399242219165 -2.6801588858701324 0.0
150.73815371444786 -2.6248841344003004 0.0
152.73591932592257 -2.569060995934268 0.0
154.73320872060705 -2.512666536028447 0.0
156.73000770226645 -2.45567227920189 0.0
158.7262998056684 -2.3980431810690837 0.0
160.72206578602712 -2.3397363527305037 0.0
162.7172829744629 -2.280699461366871 0.0
164.7119244554023 -2.220868702336568 0.0
166.70595800415498 -2.160166196359869 0.0
168.69934469670991 -2.0984966034436683 0.0
170.6920370641689 -2.035742651284748 0.0
172.68397660295892 -1.9717591300134685 0.0
174.675090354645 -1.9063646725989796 0.0
176.6652861103321 -1.8393302573091095 0.0
178.65444552505411 -1.770362720856122 0.0
180.6424139598834 -1.6990804041902465 0.0
182.62898497587898 -1.6249759995474027 0.0
184.6138758436743 -1.5473570406263057 0.0
186.5966861827108 -1.4652481511189714 0.0
188.57682753051256 -1.3772058392091455 0.0
190.5533688293301 -1.281021258427078 0.0
192.52478598980517 -1.1727218742341758 0.0
194.48765548386092 -1.046241487196 0.0
196.4351229646681 -0.879225600661387 0.0
198.3250138564512 -0.671139794966614 0.0
200.256902577161 1.5278195934585934 0.0
200.2745624027621 3.3205857176556854 0.0
200.29000421294617 5.203988841987787 0.0
200.28505702744584 7.120717453235908 0.0
200.2721925869922 9.056111402858185 0.0
200.253834306119 11.003137943820864 0.0
200.23188897631366 12.958277632587002 0.0
200.20735376757804 14.919404810651699 0.0
200.18088358406317 16.88515505255043 0.0
200.15291423725026 18.854596072150137 0.0
200.1237517219824 20.82706431080415 0.0
200.09361676399655 22.802071163098702 0.0
200.0626722382983 24.7792468903254 0.0
200.0310401599898 26.75830516407833 0.0
199.99881283580982 28.73901979064647 0.0
199.9660604242784 30.721208908112107 0.0
199.93283622868628 32.70472395255836 0.0
199.8991805030689 34.68944176430833 0.0
199.86512325537618 36.67525881938655 0.0
199.83068635709853 38.66208693388724 0.0
199.79588516293742 40.64985001077921 0.0
199.76072977800425 42.6384815382221 0.0
199.7252260676066 44.62792263863844 0.0
199.68937647679525 46.61812052739088 0.0
199.6531807081378 48.60902728014612 0.0
199.61663629341436 50.60059883568445 0.0
199.5797390860862 52.59279418029436 0.0
199.54248369519976 54.585574673690964 0.0
199.50486387703546 56.57890348638827 0.0
199.46687289775278 58.57274512581671 0.0
199.42850387816927 60.56706503401212 0.0
199.3897501303985 62.5618292439713 0.0
199.3506054952065 64.55700408517035 0.0
199.3110646885223 66.55255593155995 0.0
199.2711236654879 68.54845098802208 0.0
199.23078001071926 70.54465511356716 0.0
199.19003336403492 72.54113368237384 0.0
199.14888589176974 74.53785148687426 0.0
199.10734281486137 76.53477269118825 0.0
199.06541300604457 78.53186084887538 0.0
199.0231096693798 80.52907900727136 0.0
198.98045111521222 82.52638993340378 0.0
198.93746164068898 84.52375651686498 0.0
198.89417251578246 86.52114243912914 0.0
198.8506230461405 88.51851325873513 0.0
198.80686160652382 90.51583817254047 0.0
198.76294631693824 92.51309292809424 0.0
198.71894433289793 94.5102647600828 0.0
198.67492631078642 96.50736063095329 0.0
196.62995883951538 98.46045013542508 0.0
194.62893630495304 98.41651681010644 0.0
192.62783793654094 98.37256718248882 0.0
190.62665722766815 98.32853028665774 0.0
188.6254078678822 98.28433884586396 0.0
186.62411550351223 98.23993514933045 0.0
184.62281269859855 98.1952720780764 0.0
182.62153585312552 98.15031269014534 0.0
180.62032323294042 98.10502938752482 0.0
178.61921365508454 98.0594029952446 0.0
176.6182455810041 98.01342186507782 0.0
174.61745647659183 97.96708104008094 0.0
172.61688235482382 97.92038148797685 0.0
170.61655744850256 97.87332940115664 0.0
168.61651397911967 97.82593555785724 0.0
166.61678199901823 97.77821473861084 0.0
164.61738929095506 97.7301851926058 0.0
162.61836131356412 97.68186814941969 0.0
160.6197211840743 97.63328737238514 0.0
158.621489691528 97.58446875052215 0.0
156.62368533503644 97.53543992649006 0.0
154.62632438250776 97.48622995839004 0.0
152.62942094594894 97.43686901350547 0.0
150.63298706994038 97.38738809223155 0.0
148.63703283029514 97.33781878053908 0.0
146.64156644025408 97.2881930293645 0.0
144.64659436187574 97.2385429593344 0.0
142.6521214205544 97.18890068923376 0.0
140.65815092085856 97.13929818662272 0.0
138.6646847621252 97.08976713900408 0.0
136.67172355247044 97.04033884394929 0.0
134.67926672009287 96.99104411660639 0.0
132.6873126209442 96.94191321304099 0.0
130.6958586420264 96.89297576790179 0.0
128.7049012997409 96.84426074495323 0.0
126.71443633286938 96.79579639908094 0.0
124.72445878989227 96.74761024844503 0.0
122.73496311051224 96.6997290555361 0.0
120.74594320126151 96.65217881596857 0.0
118.75739250525024 96.60498475393432 0.0
116.76930406616115 96.55817132332592 0.0
114.78167058663117 96.5117622136257 0.0
112.79448448122966 96.46578035974264 0.0
110.80773792427757 96.42024795506245 0.0
108.82142289277466 96.37518646705576 0.0
106.835531204725 96.33061665486463 0.0
104.85005455315968 96.28655858835916 0.0
102.86498453616169 96.24303166822097 0.0
100.8803126831975 96.20005464667207 0.0
98.89603047805544 96.15764564852265 0.0
96.91212937868289 96.11582219226185 0.0
94.92860083420395 96.07460121096148 0.0
92.945436299386 96.03399907280273 0.0
90.96262724681011 95.99403160107228 0.0
88.98016517698412 95.95471409350644 0.0
86.99804162662231 95.91606134088889 0.0
85.01624817529988 95.87808764483302 0.0
83.03477645067264 95.84080683469946 0.0
81.0536181324398 95.80423228361842 0.0
79.07276495520955 95.76837692360056 0.0
77.09220871041495 95.7332532597337 0.0
75.11194124741188 95.69887338347235 0.0
73.13195447387973 95.66524898503613 0.0
71.15224035562628 95.63239136494 0.0
69.17279091590973 95.60031144468459 0.0
67.19359823435525 95.56901977663915 0.0
65.21465444550813 95.53852655315202 0.0
63.23595173714661 95.50884161492723 0.0
61.257482348379234 95.4799744587056 0.0
59.279238567583555 95.45193424429027 0.0
57.30121273023145 95.42472980095636 0.0
55.32339721663832 95.39836963328425 0.0
53.34578444966914 95.37286192645531 0.0
51.36836689242888 95.34821455104785 0.0
49.391137045959866 95.32443506736968 0.0
47.4140874469662 95.30153072936267 0.0
45.437210665580416 95.2795084881127 0.0
43.46049930318494 95.25837499499704 0.0
41.48394599029879 95.23813660449952 0.0
39.50754338453697 95.2187993767219 0.0
37.53128416864762 95.20036907961838 0.0
35.555161048631405 95.18285119097838 0.0
33.579166751944896 95.16625090018113 0.0
31.603294025788625 95.15057310974356 0.0
29.627535635479827 95.13582243668218 0.0
27.651884362908483 95.12200321370722 0.0
25.67633300507439 95.10911949026635 0.0
23.70087437270226 95.09717503345381 0.0
21.72550128893182 95.08617332879916 0.0
19.750206588078708 95.07611758094905 0.0
17.77498311446154 95.06701071425343 0.0
[...]
POINT_DATA 5151
SCALARS STRESS_EQV float 1
LOOKUP_TABLE default
1641.6325969606507
42008.82806406721
309.5768452878335
2546.542185672767
1641.269624920882
1640.1807492044586
1638.3660913142605
1635.8258547360424
1632.5603264093866
1628.5698787856006
1623.854972471112
1618.416159454098
1612.2540869119093
1605.3695015945154
1597.7632547784845
1589.436307785255
1580.3897380531735
1570.624745752471
1560.1426609285452
1548.9449511558194
1537.0332296800293
1524.4092640209635
1511.0749850063562
1497.032496197628
1482.2840836624566
1466.8322260431394
1450.6796048596625
1433.8291149771449
1416.2838751569082
1398.0472385999174
1379.1228033769921
1359.514422628024
1339.2262143963148
1318.2625709484619
1296.6281674122783
1274.3279695459153
1251.367240432558
1227.751545871038
1203.4867582109719
1178.5790583563144
1153.0349356346085
1126.8611852028594
1100.064902631958
1072.6534752824543
1044.6345700551974
1016.0161170718395
986.8062888113645
957.0134742037176
926.6462471643597
895.7133290417662
864.2235444574608
832.1857700500268
799.6088757066564
766.5016580074368
732.8727658543391
698.7306186811577
664.0833183556883
628.9385570899924
593.3035257194426
557.1848302265541
520.5884305565069
483.5196268960533
445.98313929812593
407.9833666710482
369.5249928123536
330.61428342535675
291.26182716003643
251.48851322920933
211.33950246649334
170.92078600042308
130.51310054225922
91.0379338566693
56.79875246659411
44.41640906335688
64.42622178024946
103.24052595250896
147.33825156876762
193.8025672177203
242.0496557235697
292.0055931662408
343.7782105528041
397.5778689668749
453.6993590660941
512.5255360936902
574.5428202072547
640.3668540865723
710.7799859279278
786.7847225778235
869.68027867715
961.1738942727609
1063.5462063385644
1179.9034593437448
1314.57405792408
1473.7562940174403
1666.617811765073
1907.294495646735
2218.587060246694
2640.4154451477557
3244.8890114929054
4202.320816028387
5843.774676179162
9861.401793510338
27422.17414107323
30544.304964564602
15468.871007183643
10300.977507612246
7799.018849983695
6245.086866877733
5206.157852140846
4457.103262225632
3891.107968686507
3446.9418179687186
3087.9430786714784
2790.6688940528893
2539.4903202718197
2323.600331448164
2135.3054518556464
1968.993530245427
1820.4864605832995
1686.6199816469107
1564.9629111943223
1453.6247336593858
1351.1207864721841
1256.275935071898
1168.1545390556814
1086.008732942195
1009.2396909269917
937.3682423129312
870.0123159825464
806.869434065989
747.7029781396986
692.3312974423274
640.6189692849835
592.4696900249355
547.8203916802498
506.636257414732
468.90635566491926
434.6396296296283
403.8609637581177
376.6069954322871
352.9212395115751
332.84793748619427
316.42382668931475
303.6667440960173
294.5596116589551
289.0278151152906
286.9071004934169
287.8976243175871
291.4977671540451
296.9105112311015
302.92488257931086
307.73903741594825
310.60886610941327
313.4131600858089
316.9178750584746
319.9672452610266
321.92347177448823
322.354815803203
321.0095672213097
317.8079347368347
312.83715346188507
306.35036040333534
298.770262626643
290.69612180815614
282.90841717964474
276.35950486331785
272.1323492512913
271.34931189486844
275.0291020204079
283.92437387566815
298.4028946338908
318.4260904143375
343.626791343561
373.4377383927043
407.2140086918677
444.31832548875747
484.16658082419883
526.2447154281675
570.1094518505547
615.3817646319121
661.7381106882069
708.9018037515687
756.6354465659189
804.7346239885061
853.02276385434
901.3469774697519
949.5746843047833
997.5908506432097
1045.2957049362258
1092.602823516176
1139.4375060067423
1185.7353798885524
1231.4411889448727
1276.5077316757865
1320.8949241342268
1364.5689677522444
1407.5016071821271
1449.6694664210934
1491.0534538546358
1531.6382285849438
1571.411721687738
1610.3647069934423
1648.4904167055226
1685.7841977243027
1722.2432049814076
1757.8661284428827
1792.6529507334724
1826.6047325867257
1859.7234235481637
1892.0116955557037
1923.4727972045116
1954.1104266721327
1983.928621434317
2012.9316630516712
2041.1239954455755
2068.5101552109254
2095.0947126374544
2120.882222226571
2145.87718159886
2170.083997788023
2193.5069600126562
2216.150218103644
2238.0177658466114
2259.1134285746257
2279.4408544137027
2299.003508648539
2317.8046707332187
2335.84743352432
2353.1347043621245
2369.669207668674
2385.45348877208
2400.489918700544
2414.7806997217267
2428.327871432667
2441.133317229711
2453.1987710113135
2464.5258239868585
2475.115931481626
2484.9704196451175
2494.090491982828
2502.4772356431977
2510.131627403958
2517.0545393089656
2523.246743916091
2528.70891912317
2533.441652543983
2537.445445412871
2540.7207159997242
2543.267802520674
2545.086965533561
2546.178389809292
2497.1597638870016
2399.2543451359998
2303.0302766030613
2208.412616137659
2115.3265529240325
2023.6974449128445
1933.4508595889213
1844.512618762371
1756.8088485227504
1670.2660361264618
1584.8110964862603
1500.3714522377418
1416.8751333008613
1334.2509048123354
1252.4284369178376
1171.3385372976663
1090.9134794579627
1011.0874804683203
931.79741812629
852.9839438883519
774.5932747811919
696.5802030381029
618.91340938233
541.5854267431555
464.6327783645877
388.18076309166133
312.5564035881963
238.62618438278827
169.0615028803939
113.86349872903742
98.33015516242439
133.534413786139
198.08695469541635
272.255041253781
350.1863159297628
430.21538263227194
511.76073992953786
594.597758306983
678.645196622808
763.8883269953687
850.3467595265868
938.0593795585235
1027.0766639383532
1117.456487682583
1209.2617081267454
1302.5587102654397
1397.4164982353914
1493.9061101122093
1592.1002306958
1591.7452984246809
1493.567747151669
1397.0957316652818
1302.2566757482414
1208.9796817180509
1117.1959294540918
1026.8392792421005
937.8472073503165
850.162303510245
763.734757062136
678.5266708095794
594.5199623776797
511.73184527137744
430.24787157915404
350.3007773404813
272.4889139481105
198.51627784385644
134.30896581889394
99.46099835145858
114.96109684793782
169.85542173310455
239.20338757277446
312.99981851521443
388.5328787729108
464.9164868462736
541.8141880704593
619.0957421649672
696.7218260011371
774.6982169735712
853.0551629748497
931.8371657769575
1011.0975291697009
1090.895269196669
1171.293273748443
1252.3571591059153
1334.1545328929014
1416.7545029899807
1500.2273400346853
1584.6442383841177
1670.0771416112366
1756.598611089125
1844.2817238008265
1933.1999902498756
2023.4272863843935
2115.0377954425107
2208.1059569686286
2302.7064211722645
2398.9140074475476
2496.8036663361536
1590.6805420252358
1492.5526996859799
1396.1334765743486
1301.350622743117
1208.1336622959911
1116.4143278628817
1026.1272163702624
937.2108057692323
849.609080876414
763.2742300984415
678.1713199839368
594.2868470286411
511.6454664995059
430.34561419179505
350.64417698037965
273.1893905430057
199.79783006627196
136.60052490432324
102.77858476495118
118.18739071467863
172.21263135241185
240.9260853148289
314.3261393309236
389.5872687023949
465.7665746728653
542.49991739347
619.6424601713557
697.1465784255872
775.013027747533
853.2688666196418
931.9564927184167
1011.1277805389552
1090.8407537793942
1171.1576007558085
1252.14344008118
1333.8655243749206
1416.3927093709897
1499.7950889394358
1584.1437366062464
1669.510516974326
1755.9679438967219
1843.5890704266808
1932.4474006769963
2022.6168169964285
2114.1715180221413
2207.1859646130733
2301.7348316617586
2397.892964478264
2495.7353389386894
1588.9060830193187
1490.861092221871
1394.5298670746854
1299.840703158954
1206.7238295825728
1115.111902571021
1024.9407494533264
936.1505205555657
848.6875286298307
762.5072955123893
677.579824955335
593.8992304036562
511.50251947843515
430.5094369914349
351.2165618607754
274.3530879188785
201.9129211036211
140.31994543185547
108.08108676408533
123.36264126356332
176.0634574245965
243.76826323712532
316.5237754411557
391.33811855262155
467.179949272009
543.6409583041043
620.5527251349769
697.8541118037658
775.537659887437
853.6251939704208
932.155650909369
1011.1785504331756
1090.7502794552502
1170.931871513067
1251.7876233647057
1333.3842013047013
1415.7900447259904
1499.0749558314396
1583.3098090557476
1668.5663392251367
1754.916982508671
1842.434753355427
1931.1931463270648
2021.266055401426
2112.7277057309157
2205.652594456139
2300.115438285002
2396.1911263256284
2493.9546772159565
1586.4221248769752
1488.4931331332423
1392.2851275327278
1297.727171076168
1204.7504841494936
1113.2890209492803
1023.280336978988
934.6669299815185
847.3983776495344
761.4348719914633
676.7533236356771
593.3584788337741
511.3045314985577
430.7407148653303
352.0180129231046
275.9745018959514
204.83215614396698
145.33892181492868
115.09413665094311
130.24058602632883
181.3035307115574
247.6888303938363
319.5739937024491
393.7759239049867
469.1515230357985
545.2345751113455
621.8251490767315
698.8438482282396
776.2720353423632
854.1243769099156
932.4350602453399
1011.2503654833954
1090.6244238009963
1170.6166754335165
1251.2902824488692
1332.7111015093776
1414.9469973292555
1498.0673699695546
1582.1428199636837
1667.2449043246284
1753.4459536575773
1840.818931060636
1929.4373200427972
2019.375032889855
2110.7063336683073
2203.505771910163
2297.8481242929643
2393.808342518211
2491.4615062248713
1583.2289544158698
1485.4491159539587
1389.3995738387055
1295.010384097344
1202.214048976301
1110.946199988458
1021.1466242133915
932.7608479306284
845.74265652256
760.0582520417337
675.6934159042489
592.6665109750677
511.0536425270151
431.0413670959399
353.04864879105736
278.0461971598811
208.51770590139748
151.51085275922588
123.52717250887227
138.55707414447636
187.8072025272948
252.63458427253136
323.45172970180676
396.8877561972002
471.6743101596568
547.276989499326
623.4578077872844
700.1149847448711
777.2160461708627
854.7667399976848
932.7953084912339
1011.3439633842879
1090.4639964503579
1170.2128392758873
1250.652222224373
1331.846980215895
1413.864253150417
1496.7729346813794
1580.6432814797483
1665.5466286069131
1751.5551764415666
1838.7418267013982
1927.1800526815578
2016.9437937013577
2108.107366950559
2200.745392075946
2294.9327253220554
2390.74440106897
2488.2555793432966
1579.326943759016
1481.7294211867145
1385.8736151845715
1291.6908052428903
1199.1150716431462
1108.0841089957553
1018.5404466229933
930.433328253713
843.7216969661133
758.3791084001805
674.4021704616443
591.8258036043841
510.75260691293244
431.4138518051732
354.30863077060417
280.5590516975013
212.92588586867143
158.68807976493662
133.11193336437663
148.06383399159932
195.440372390413
258.54363583057506
328.12660542780145
400.6576102292422
474.73955612479756
549.7634302446202
625.4482592791683
701.6664993375091
778.3695558278534
855.5527003631692
933.2371511588543
1011.4602932694902
1090.2700400860963
1169.721428695328
1249.8744809593577
1330.7928123049282
1412.5426982319984
1495.1924297268663
1578.811855902532
1663.4720507763448
1749.2450640083453
1836.2037294326399
1924.421514008355
2013.9723954730848
2104.930760702571
2197.371319280067
2291.3690284914696
2386.9990271589077
2484.3365765767294
1574.7165528487826
1477.334518626099
1381.7077563510568
1287.7690053967106
1195.4542271699156
1104.7035730973657
1015.4628343297748
927.685670446502
841.3371408938789
756.3995023773621
672.882133713965
590.8393990740915
510.40479550127
431.86115881997654
355.7981688651061
283.5025379579766
218.00967814282635
166.73285880719948
143.62011721228586
158.54483433263087
204.07049609941717
265.3488323601406
333.5640613711646
405.0668119730211
478.3368943258941
552.6881944972785
627.7935668047982
703.497158437101
779.7324007580355
856.4827675245033
933.7615113009957
1011.600516142484
1090.0438316660466
1169.1437501947023
1248.9583328107792
1329.549795186705
1410.9834217349648
1493.326814335252
1576.6493585527792
1661.0218344874074
1746.516125737448
1833.2049961096416
1921.1619138654444
2010.4609098386245
2101.1764600696843
2193.3833865008037
2287.156771261162
2382.5718814602365
2479.704102393482
1569.3983325147233
1472.2649701936527
1376.90260050415
1283.2456663082066
1191.2323215174276
1100.805577575627
1011.9150176437499
924.5194267094013
838.5909491996875
754.1218942063972
671.1363407427052
589.7109144264308
510.0141980954571
432.3868009682961
357.51752853355316
286.865022226332
223.72093218170747
175.5226422428886
154.86648815849182
169.82034288741247
213.57313441379148
272.9808271467828
339.72651388918825
410.0944637085871
482.4545235375065
556.0447188465405
630.4903259480946
705.6055258221428
781.3043922499085
857.5575430998136
934.3694791859929
1011.7660053242203
1089.786883845859
1168.481353444431
1247.905290843411
1328.1193522811939
1409.1877196422279
1491.1772309127582
1574.156761293496
1658.1967715164133
1743.3689699334182
1829.746053402261
1917.4015036355893
2006.4094231944314
2096.844400265469
2188.7813946978076
2282.2956400640874
2377.4625581105956
2474.357683098025
1563.3729280922894
1466.521433282413
1371.4588525018592
1278.121584158353
1186.450295770107
1096.3912730766324
1007.89843372817
920.9364104650555
835.4854123506244
751.5491554918312
669.1683284267087
588.4445521682192
509.5854261976842
432.9948038203943
359.4670379003464
290.6340649629244
230.01210827879942
184.95149841943606
166.7046658481125
181.74453414248774
223.83546322808542
281.37059317435023
346.574462288955
415.7179039571334
487.07939954400115
559.8256581981427
633.5346952263421
707.9899727550539
783.0853184965542
858.7777203710292
935.0623118078781
1011.9583468690652
1089.500946551407
1167.736033929289
1246.7171105233201
1326.5031370797883
1407.1570991070362
1488.7450094169103
1571.3351967009016
1654.9977855350187
1739.8043070445087
1825.8274003371216
1913.1405780192315
2001.8180376548228
2091.934506676487
2183.5651120651764
2276.785268730784
2371.670582354734
2468.2967637556267
1556.641083587102
1460.1046646067098
1365.3773227122515
1272.3976737003743
1181.1092310247993
1091.4619817321081
1003.4147344649375
916.9387064263772
832.0231629020368
748.6845838722635
666.982150794487
587.0451127013936
509.1237159410565
433.689693897764
361.6470951193724
294.79670760230965
236.8375373746262
194.92939870552888
179.02044868882135
194.2006103266152
234.75757366658866
290.45131444210455
354.0674898823155
421.913161919123
492.1974343122272
564.0229703916402
636.9224295868225
710.6486891782279
785.0749467991834
860.1440836512535
935.8414321771211
1012.1793398898187
1089.1880086433607
1166.9098358715034
1245.3957936456454
1324.7030377603683
1404.8932834303077
1486.0316723922933
1568.1859628898658
1651.4259364973498
1735.822953425034
1821.449611289651
1908.3794771501011
1996.6868722214967
2086.4466950498195
2177.7342732324405
2270.625236728214
2365.195407872176
2461.5207046840314
1549.2036463791685
1453.015524552729
1358.658931343762
1266.07497298729
1175.2103540152384
1086.0192042483905
998.4657956022395
912.5286823277696
828.2071900690513
745.5319200308339
664.5823966985361
585.5180084033944
508.63493111591913
434.4764853818799
364.05817561289626
299.3397348938196
244.15424345700944
205.38055395825486
191.72512591560147
207.095523409864
246.2523739136603
300.1596864861395
362.1651246280632
428.65538960032814
497.7936965046189
568.6280044772341
640.6489161504521
713.5796957763034
787.2730258406264
861.6575074006649
936.7084283301973
1012.4309967237161
1088.8502996066948
1166.005055370821
1243.9435926490341
1322.7211823211724
1402.3982176461266
1483.0389406604804
1564.7105289982783
1647.4824256539573
1731.4258356614287
1816.6133394514964
1903.118589077892
1991.0160641972477
2080.3808717929555
2171.2885784421696
2263.815067239621
2358.036413814616
2454.0287775323422
1541.061572459936
1445.2549820239487
1351.3047132886413
1259.1546487004782
1168.755043507789
1080.0646280273675
993.0537272831033
907.7090024521806
824.040856512832
742.0953672096653
661.9742099133007
583.8692793458671
508.125566181681
435.3606653669872
366.7008389379349
304.2499056785748
251.9224099610422
216.24147314278162
204.7497304211323
220.35519704197523
258.24471726587683
310.4367127463678
370.8275443564064
435.9192589144235
503.85260782900514
573.631590643396
644.7092115425444
716.7808567006422
789.6792879493364
863.3189550279745
937.6650519862029
1012.7155428603098
1088.490291186555
1165.0242436906826
1242.3630152586202
1320.5599441909635
1399.67407468846
1479.7687396518882
1560.9105413318975
1643.1686012057526
1726.6139954842233
1811.3193208019181
1897.3583526505377
1984.8057708789038
2073.736934421735
2164.227692738375
2256.354225117411
2350.1929015821006
2445.8201609713615
1532.215932192124
1436.8241197742982
1343.3158234809123
1251.6380020971092
1161.7448375115735
1073.6001363964972
987.180886072439
902.4826431117713
819.5279175266111
738.3796134074945
659.163311769954
582.105610631635
507.602749142654
436.3481777156157
369.57573507856625
309.5141485434994
260.1055790374678
227.4590767177452
218.0404373182193
233.92053040912492
270.67017518082423
321.2281036583307
380.0161269456189
443.67931525701925
510.35813061204937
579.0241299296235
649.0980801567168
720.2498927414879
792.2934512648488
865.1294773049298
938.7132167673417
1013.0354165394346
1088.1106988789484
1163.9702106073678
1240.6568293889397
1318.2219482647306
1396.7232621073995
1476.2232063652812
1556.7878301702558
1638.4859646122977
1721.3885952909918
1805.5683786154377
1891.0992608338322
1978.056171569785
2066.514772196895
2156.551245205442
2248.2421147459063
2341.664091371093
2436.893936025106
1522.6679165805137
1427.7241402194693
1334.6935427702324
1243.5264755974874
1154.1814413531117
1066.6278190371415
980.8498886192298
896.8529102671407
814.6725428380021
734.3898564655403
656.1560264515559
580.2343513213493
507.07424415571626
437.4454055927117
372.6836100233527
315.11972176362843
268.670664023468
238.98900441975374
231.55500830016476
247.7441883390553
283.47370982455726
332.48438296831404
389.6938565209482
451.91028293269164
517.2939429671575
584.7956820523491
653.8100327196449
723.9843947281443
795.1152217090945
867.0902103150556
939.8549958930624
1013.3932679180868
1087.7144831731227
1162.846027727202
1238.8280682273207
1315.7100773044208
1393.5484292944323
1472.404696935117
1552.3444172328595
1633.4361775681123
1715.7509243059149
1799.3614285415738
1884.3418645104582
1970.767469957097
2058.714266996076
2148.2588283036366
2239.4780778579056
2332.449118535025
2427.2490810792497
1512.4188440392866
1417.9563717160268
1325.4392843134751
1234.8216600374433
1146.0667366765786
1059.1499837195636
974.0636271163769
890.8234594994217
809.4793412751947
730.1318322736638
652.9593090815335
578.2635349093905
506.5484537282375
438.6591527718699
376.02531054960616
321.05433917978246
277.5878402082526
250.79415857222713
245.260091533443
261.7880773465839
296.60838730381374
344.16079166465965
399.8256030692619
460.5873211126211
524.6435989229278
590.936049901482
658.839364560055
727.9818369363982
798.1442946625075
869.2023728502502
941.0926192458126
1013.7919576900223
1087.304850427262
1161.6550316620212
1236.8800354038071
1313.0274786320915
1390.1524751679256
1468.3157947805462
1547.5825238000812
1628.0210696598772
1709.7024054036815
1792.6994842948443
1877.0867768044586
1962.9398969061538
2050.3352944754356
2139.3499973548633
2230.0613913566376
2322.5470298045343
2416.884466608388
1501.470167638245
1407.5222752950272
1315.554600485688
1225.5253026155428
1137.40279144161
1051.169169472136
966.8252867500637
884.3983185873992
803.9533885821266
725.6118463558194
649.5807767460986
576.2019012946242
506.03442035770655
439.9966238312356
379.60178820924375
327.30626517028395
286.83036285072467
262.8434782579097
259.129186080447
276.02138231651736
310.0342011911674
356.21706173324924
410.3782956559527
469.6862315893476
532.3906718237943
597.4348595160799
664.1801930317052
732.2395902820892
801.3803562356615
871.467263158519
942.4284696949753
1014.2345550297347
1086.8852532444482
1160.4008269371136
1234.816310139747
1310.17757103119
1386.5385562601457
1463.9593193026255
1542.5045794787236
1622.2426467158816
1703.2446026268733
1785.5836639982067
1869.3346779841027
1954.573713728902
2041.377725580402
2129.8242702387283
2219.9912652011994