# vtk DataFile Version 2.0
mesh vtk view
ASCII
DATASET UNSTRUCTURED_GRID
POINTS 5151 double
0.0 -1.1245803961655643 0.0
200.0 0.0 0.0
199.69085751496024 99.66228738173916 0.0
0.0 98.87731129250383 0.0
2.003637881170696 -1.1244719309690414 0.0
4.0072741681224295 -1.124146568007374 0.0
6.01090726681262 -1.123604405160954 0.0
8.014535583553306 -1.1228456055526244 0.0
10.018157525192718 -1.1218703975306812 0.0
12.021771499299733 -1.1206790746444721 0.0
14.02537591435391 -1.1192719956120085 0.0
16.02896917994138 -1.1176495842788194 0.0
18.032549706960236 -1.1158123295670737 0.0
20.036115907835928 -1.1137607854138443 0.0
22.039666196745657 -1.111495570697169 0.0
24.043198989855238 -1.109017369148357 0.0
26.046712705568723 -1.1063269292487838 0.0
28.05020576479567 -1.103425064109195 0.0
30.053676591232126 -1.1003126513292927 0.0
32.057123611656294 -1.0969906328351529 0.0
34.0605452562456 -1.0934600146917135 0.0
36.06393995891275 -1.0897218668873532 0.0
38.06730615766198 -1.0857773230872125 0.0
40.07064229496696 -1.0816275803516893 0.0
42.07394681817111 -1.0772738988161188 0.0
44.07721817991135 -1.0727176013273636 0.0
46.080454838565835 -1.0679600730326257 0.0
48.083655258726424 -1.0630027609154218 0.0
50.08681791169619 -1.0578471732732444 0.0
52.0899412760123 -1.0524948791309585 0.0
54.09302383799438 -1.0469475075835728 0.0
56.09606409231794 -1.041206747061457 0.0
58.09906054261281 -1.0352743445105927 0.0
60.10201170208535 -1.0291521044798944 0.0
62.104916094163706 -1.0228418881069774 0.0
64.10777225316728 -1.0163456119931749 0.0
66.1105787249893 -1.0096652469579215 0.0
68.11333406779534 -1.0028028166618839 0.0
70.11603685275122 -0.9957603960873536 0.0
72.11868566474755 -0.9885401098637929 0.0
74.121279103135 -0.9811441304253127 0.0
76.12381578246136 -0.9735746759860033 0.0
78.12629433320535 -0.9658340083179122 0.0
80.1287134024997 -0.9579244303153381 0.0
82.13107165483711 -0.9498482833278131 0.0
84.13336777275012 -0.9416079442426827 0.0
86.1356004574554 -0.9332058222966948 0.0
88.13776842945194 -0.9246443555941196 0.0
90.13987042906072 -0.9159260073069857 0.0
92.14190521689244 -0.907053261530707 0.0
94.14387157422804 -0.898028618765723 0.0
96.14576830329494 -0.8888545909927947 0.0
98.14759422741999 -0.8795336963060887 0.0
100.14934819103775 -0.8700684530640654 0.0
102.15102905953066 -0.8604613735134914 0.0
104.15263571887432 -0.8507149568361774 0.0
106.15416707505837 -0.8408316815615191 0.0
108.15562205324966 -0.8308139972799223 0.0
110.15699959665993 -0.8206643155829105 0.0
112.1582986650775 -0.8103850001444302 0.0
114.15951823301303 -0.7999783558444633 0.0
116.16065728740718 -0.7894466168198452 0.0
118.16171482483742 -0.7787919333076807 0.0
120.16268984815312 -0.7680163571230836 0.0
122.16358136245799 -0.7571218255842695 0.0
124.16438837034298 -0.7461101436630231 0.0
126.16510986625903 -0.7349829640957857 0.0
128.16574482990376 -0.7237417651380662 0.0
130.16629221844772 -0.7123878255803061 0.0
132.1667509574221 -0.7009221965631827 0.0
134.16711993007627 -0.6893456696307005 0.0
136.16739796487283 -0.6776587403357335 0.0
138.16758382082102 -0.6658615665561857 0.0
140.1676761702252 -0.6539539204831919 0.0
142.16767357833695 -0.6419351329923627 0.0
144.16757447926287 -0.6298040287886826 0.0
146.1673771473188 -0.617558850302512 0.0
148.16707966279307 -0.6051971677771266 0.0
150.16667987079254 -0.5927157722839387 0.0
152.16617533145654 -0.5801105474690282 0.0
154.165563259297 -0.5673763145870686 0.0
156.16484044871245 -0.5545066436907493 0.0
158.16400318174712 -0.5414936215317285 0.0
160.16304711280438 -0.5283275635197912 0.0
162.1619671231048 -0.5149966525667128 0.0
164.16075713493834 -0.5014864811727734 0.0
166.15940987176188 -0.4877794636941639 0.0
168.1579165442828 -0.47385407174534444 0.0
170.15626643371746 -0.4596838244836527 0.0
172.1544463295818 -0.44523593258368643 0.0
174.1524397573903 -0.43046944219976957 0.0
176.15022589577973 -0.41533263874721826 0.0
178.1477780216932 -0.3997593240642856 0.0
180.1450612166631 -0.38366331707521695 0.0
182.1420288654448 -0.36693006441392967 0.0
184.13861712592316 -0.34940320272206904 0.0
186.13473558958498 -0.330862485736542 0.0
188.13025137780681 -0.3109819636923877 0.0
190.12495425174185 -0.28926286480611435 0.0
192.11850006218015 -0.2648081651496526 0.0
194.11011575439474 -0.23624807775393547 0.0
196.09825357265004 -0.19853481305257126 0.0
198.07339022564182 -0.15154769563762252 0.0
200.05801025935892 1.8933786178716734 0.0
200.06199796191402 3.8465838717163563 0.0
200.06548482227817 5.820255544946067 0.0
200.06436771587485 7.8014523281255785 0.0
200.06146284222405 9.786863865131776 0.0
200.05731742396236 11.774902116311512 0.0
200.05236202690955 13.764772368606298 0.0
200.04682181848537 15.755994634612872 0.0
200.04084468027233 17.74826081825939 0.0
200.03452902131457 19.741360403322254 0.0
200.02794393722183 21.735143553978027 0.0
200.02113926928953 23.72949993997198 0.0
200.01415179574477 25.724346071918358 0.0
200.0070090683848 27.71961729501582 0.0
199.99973193066674 29.715262533265108 0.0
199.99233622483706 31.711240721072922 0.0
199.9848339871227 33.70751831175175 0.0
199.97723430714458 35.70406749504759 0.0
199.9695439608914 37.70086489457884 0.0
199.96176788708675 39.69789059785066 0.0
199.95390955292135 41.695127421662434 0.0
199.9459712401945 43.69256034721152 0.0
199.93795427333052 45.690176079561056 0.0
199.92985920443763 47.68796269959938 0.0
199.9216859663537 49.68590938570287 0.0
199.91343400173872 51.68400618856383 0.0
199.90510237427753 53.682243847021596 0.0
199.89668986665802 55.68061363585054 0.0
199.88819506900802 57.67910723871513 0.0
199.8796164607829 59.677716641164174 0.0
199.87095248861885 61.67643403978643 0.0
199.86220164234805 63.67525176461534 0.0
199.85336253117566 65.67416221263635 0.0
199.84443396192438 67.67315779086182 0.0
199.8354150212392 69.67223086813594 0.0
199.8263051637108 71.67137373520298 0.0
199.81710430800788 73.6705785733291 0.0
199.80781294330285 75.6698374324183 0.0
199.7984322485171 77.66914222049768 0.0
199.78896422717136 79.66848470772584 0.0
199.7794118608277 81.66785654995276 0.0
199.7697792840802 83.66724933973306 0.0
199.76007198338138 85.66665469729729 0.0
199.75029701969282 87.66606442168799 0.0
199.74046326848332 89.66547073580105 0.0
199.73058165308603 91.66486668408814 0.0
199.72066529737316 93.66424679018941 0.0
199.71072936549308 95.66360817161464 0.0
199.70078981211307 97.66295240052936 0.0
197.69063586699835 99.65235970799921 0.0
195.69040497210815 99.64243927970145 0.0
193.69015695344547 99.63251517023942 0.0
191.68989034177548 99.62257135505175 0.0
189.68960822828652 99.61259264261444 0.0
187.68931640408493 99.60256600146171 0.0
185.68902222234124 99.5924807918237 0.0
183.68873390240668 99.5823286719683 0.0
181.68846008495655 99.57210341008626 0.0
179.68820953512912 99.56180067634556 0.0
177.6879909377671 99.55141784050144 0.0
175.68781275291087 99.54095378324408 0.0
173.68768311252265 99.53040872309155 0.0
171.68760974659014 99.5197840583257 0.0
169.687599930934 99.50908222274195 0.0
167.68766045156727 99.49830655387987 0.0
165.6877975820156 99.4874611725239 0.0
163.68801707100283 99.47655087244961 0.0
161.6883241385484 99.46558101957083 0.0
159.68872347895214 99.45455745979532 0.0
157.6892192694329 99.44348643501388 0.0
155.689815183389 99.43237450673324 0.0
153.69051440740284 99.4212284869206 0.0
151.69131966121836 99.4100553756652 0.0
149.69223322001915 99.39886230528302 0.0
147.69325693840796 99.38765649050167 0.0
145.69439227555932 99.37644518436583 0.0
143.69564032107849 99.36523563950439 0.0
141.69700182115815 99.35403507439868 0.0
139.69847720468098 99.34285064429125 0.0
137.70006660896345 99.33168941637564 0.0
135.7017699048892 99.32055834891112 0.0
133.70358672122146 99.30946427391248 0.0
131.70551646792845 99.2984138830746 0.0
129.7075583583911 99.28741371660234 0.0
127.70971143039853 99.27647015463118 0.0
125.71197456585925 99.2655894109392 0.0
123.71434650922505 99.25477752866944 0.0
121.71682588455553 99.24404037779935 0.0
119.71941121126267 99.2333836541142 0.0
117.72210091856513 99.22281287946069 0.0
115.72489335867134 99.21233340307677 0.0
113.72778681874198 99.20195040381286 0.0
111.73077953168827 99.19166889307861 0.0
109.73386968586503 99.18149371836742 0.0
107.73705543372479 99.17142956722749 0.0
105.74033489950037 99.16148097156497 0.0
103.74370618598469 99.15165231217892 0.0
101.74716738047664 99.14194782344208 0.0
99.7507165599607 99.1323715980535 0.0
97.75435179558626 99.12292759180106 0.0
95.75807115651038 99.11361962828163 0.0
93.7618727131644 99.1044514035361 0.0
91.76575454000209 99.0954264905647 0.0
89.76971471778334 99.086548343695 0.0
87.77375133544356 99.07782030278136 0.0
85.7778624915966 99.06924559722036 0.0
83.78204629571302 99.06082734977085 0.0
81.78630086901528 99.0525685801719 0.0
79.79062434512457 99.04447220855496 0.0
77.79501487049356 99.03654105864955 0.0
75.79947060465416 99.02877786078407 0.0
73.8039897203082 99.02118525468558 0.0
71.80857040327926 99.01376579208323 0.0
69.81321085236486 99.00652193912232 0.0
67.81790927909962 98.99945607859594 0.0
65.82266390741346 98.99257051200208 0.0
63.82747297325629 98.98586746143518 0.0
61.83233472416879 98.97934907132063 0.0
59.837247418816816 98.97301741000103 0.0
57.8422093265005 98.96687447118369 0.0
55.84721872664589 98.96092217525774 0.0
53.85227390828698 98.95516237048992 0.0
51.85737316954432 98.94959683410758 0.0
49.86251481710483 98.94422727327702 0.0
47.86769716570814 98.93905532598512 0.0
45.87291853764228 98.9340825618319 0.0
43.878177262251654 98.92931048274127 0.0
41.88347167545989 98.92474052359667 0.0
39.888800119309124 98.92037405280817 0.0
37.89416094151665 98.91621237281706 0.0
35.89955249505035 98.91225672054351 0.0
33.90497313772304 98.90850826778284 0.0
31.91042123180581 98.904968121555 0.0
29.915895143660563 98.9016373244121 0.0
27.921393243391496 98.89851685470808 0.0
25.92691390451473 98.89560762683433 0.0
23.932455503645507 98.89291049142506 0.0
21.938016420202448 98.89042623553529 0.0
[...]
POINT_DATA 5151
SCALARS STRESS_EQV float 1
LOOKUP_TABLE default
370.69123157175807
9485.864401563562
69.90444893596236
575.0256548293356
370.6092701434248
370.3633949816518
369.9536335225754
369.3800317145923
368.64265435051016
367.74158553223504
366.67692926767154
365.44881019931563
364.0573744639835
362.50279068263575
360.78525107901487
358.9049727257026
356.8621989152334
354.6572006537875
352.29027827418827
349.7617631642157
347.07201960516784
344.2214467144132
341.21048048530815
338.0395959155929
334.70930921410115
331.2201800742556
327.5728140005641
323.7678646722554
319.8060363257565
315.688086135469
311.4148265690008
306.9871276901986
302.40591937981503
297.67219343997874
292.78700554471095
287.7514769942452
282.56679622670924
277.2342200353972
271.7550744347376
266.1307551127123
260.36272740135814
254.45252569096516
248.40175220721426
242.2120750637778
235.88522549633177
229.4229941775145
222.8272265057958
216.09981675567815
209.2427009725987
202.2578484933025
195.14725197426577
187.91291581775045
180.5568429015051
173.08101955006595
165.4873987413017
157.7778816376814
149.95429769322095
142.01838385903136
133.97176387213258
125.8159294059971
117.55222625469652
109.18185123459466
100.70587016409368
92.12527634507416
83.44112740923919
74.6548381928217
65.76879968129765
56.78772879369099
47.72182313759605
38.59501619364539
29.47070012244498
20.5569528063443
12.825524750521875
10.029511723982669
14.547856531023868
23.31237682798539
33.26992777359162
43.76187001690572
54.6563738730634
65.9367468439884
77.62733786676245
89.77564783123006
102.44824236976282
115.7315726663155
129.7354755306681
144.59896705180444
160.4987064998527
177.6610663885406
196.3794177658079
217.03926644868778
240.15559497967718
266.4298134001989
296.83930340221013
332.7836792942612
376.33305426953416
430.6794022428131
500.971271668609
596.2228424527192
732.7168735629139
948.9111520064096
1319.5620236533593
2226.7681469216895
6192.103838306857
6897.101121030715
3492.970872589854
2326.027179138249
1761.0687725769649
1410.1809054240057
1175.5840311285756
1006.4426721154666
878.6372832517951
778.3417008316433
697.2774693774293
630.1510405925902
573.4332981258956
524.6839458108723
482.16574719321
444.6114423134853
411.0775878736472
380.84967327510833
353.3787218825892
328.23784308437666
305.09179049371994
283.6752111452678
263.7768313996702
245.22777840630096
227.89283343512608
211.66379665130972
196.45439393154197
182.19632382135168
168.83615635412775
156.33287361600958
144.655896290157
133.7834783927275
123.70137876650668
114.4017355452612
105.88208031143523
98.14443249701276
91.1944111711876
85.04028929116203
79.69189279293738
75.15921169043017
71.45054151048794
68.56990995716477
66.51346069717995
65.26434534861049
64.78547430496394
65.0091409749395
65.82207645413669
67.04430898766265
68.40239284048528
69.4894600616633
70.13748589567274
70.77071356776604
71.56210081965935
72.2506682847487
72.69239685229999
72.78979711684605
72.48603130803744
71.76308203735135
70.64064755591188
69.17588783301417
67.46425285118148
65.64105976313083
63.882545814749044
62.40375916268106
61.449240153512335
61.27242526657797
62.10334561751693
64.11195539128991
67.38129878831091
71.90266557743618
77.59314643241203
84.32465060480418
91.95155034977675
100.32994446519965
109.32793760546406
118.8294518708768
128.7343923533562
138.95717265882593
149.4247346715299
160.07460084712622
170.85316535359226
181.71426993288577
192.61804345098022
203.52996265446083
214.42009000430457
225.2624501452391
236.03451401785898
246.71676660042863
257.2923400660384
267.7466986845117
278.0673652456212
288.2436813461485
298.26659577224433
308.1284765892203
317.82294355725753
327.34471822412087
336.6894895800797
345.85379355143675
354.8349048972305
363.63074028884137
372.23977151414823
380.6609478732298
388.8936269312867
396.9375128741979
404.7926017785252
412.45913316474287
419.9375472528112
427.22844738354655
434.3325671106968
441.25074150660976
447.98388225936117
454.5329561729586
460.8989667135171
467.082938273434
473.0859028536175
478.90888888987195
484.5529119739384
490.01896724245853
495.3080232286639
500.4210169911453
505.35885035246145
510.1223870974942
514.712450996642
519.1298245335422
523.3752482300804
527.4494204732321
531.3529977591894
535.086595280022
538.650787787242
542.0461106743153
545.2730612274859
548.332100000924
551.2236522776755
553.9481095831993
556.5058312228384
558.8971458184303
561.1223528230903
563.1817239961215
565.0755048226572
566.8039158654121
568.367154037511
569.7653937875052
570.9987881891022
572.0674699292854
572.9715521900011
573.7111294192925
574.2862779885411
574.6970567333854
574.9435073762921
563.8747853938402
541.767110192
520.0390947168198
498.67381654721333
477.65438291833016
456.9639391738688
436.5856779716926
416.50284939795495
396.69877224707255
377.1568468672653
357.860570174317
338.7935537311033
319.9395462292274
301.28246237697937
282.80642123951156
264.4957987446343
246.33530181308856
228.31007623478217
210.4058686091623
192.6092776522084
174.9081588215593
157.2923039118295
139.7546408282684
122.29348345813239
104.91707898555154
87.65372069811752
70.57725242314181
53.88333195740381
38.17517806977603
25.711112616244037
22.203583423760552
30.152932145241618
44.729312350579825
61.476944799243725
79.07432940349769
97.14540898148442
115.55887675828448
134.264009940289
153.24246375353835
172.490912547339
192.01378440922866
211.81985990031467
231.92053701833646
252.32888431542233
273.05909538346
294.1261603825184
315.5456608918621
337.3336377672749
359.50650370550494
359.42635770879974
337.2572332277961
315.47322973086864
294.0579590399251
272.9954120008518
252.27004858640655
231.86693402240806
211.7719500468483
191.97213305070093
172.4562354656426
153.21569986022882
134.2464431175443
115.55235215805396
97.15274519529424
79.10017552849871
61.52975476248037
44.82625628731978
30.32783099134671
22.458935111615798
25.958957352770575
38.35445006877182
54.01366816159645
70.67737837440453
87.7332306906582
104.98114219109372
122.34513924171696
139.79581274692853
157.3242832905792
174.9318554456451
192.62535938141775
210.41484388511964
228.31234529638425
246.33118981860267
264.4855779431968
282.79032624972274
301.2607009758167
319.9123071267703
338.761012265897
357.82289253834915
377.11419326705317
396.6512992781893
416.45071182599276
436.5290300564239
456.9029356351863
477.5891796160506
498.6045709284
519.9659660711566
541.6902597462204
563.7943762694543
359.185928844408
337.02802896134955
315.2559463232381
293.85336642586435
272.8043753571609
252.09355790452003
231.70614563199354
211.62824646402225
191.84721181080485
172.35224550609865
153.13545935121135
134.1938041677604
115.53284727408106
97.17481610782418
79.17771738267021
61.687926896809145
45.115639047214906
30.845279817088105
23.208067527568524
26.68747532267668
38.88672320860703
54.40266442592958
70.97687017149968
87.97131873925132
105.17309750677586
122.49998134691248
139.91926519998378
157.4201951283586
175.0029417494433
192.67361504314488
210.44178867835208
228.31917625073146
246.3188798856694
264.45494210615044
282.74206711510516
301.1954409878854
319.83061179344975
338.6634071798728
357.7098760078615
376.98624576839603
396.5088905573241
416.2943062253787
436.35909047545107
456.7199264185492
477.3935685856444
498.39683071908087
519.746574891365
541.4597016563813
563.5531410506715
358.78524455274976
336.6460530823596
314.89384095234846
293.5124168423431
272.4860260347746
251.79946187087432
231.43823374752532
211.38882722222615
191.6391193680278
172.17906672860258
153.00189595765372
134.10627783308573
115.50056891448575
97.21180835290238
79.30696558146818
61.95069727200692
45.59324024920343
31.68514896847841
24.405406688663785
27.856080285324456
39.756264579742535
55.044446537410685
71.47311058348606
88.36667193123655
105.49224660980812
122.75763574608818
140.12480890144604
157.57996072988254
175.12140707135686
192.75407605783624
210.48675988276
228.33064042039413
246.29845019957241
264.4039709868215
282.6617214049336
301.0867551333199
319.69452622844983
338.5007964780672
357.52156978678136
376.7730443411598
396.27157669550627
416.0336539834826
436.07587175127276
456.4149157358065
477.06754645536836
498.05058584493423
519.3809054191934
541.0754156219148
563.1510561455385
358.2243507786713
336.1113526429904
314.38696428158426
293.03516766235964
272.0404319047243
251.38784344016025
231.063301898483
211.05382289905333
191.34802075957245
171.9369065787157
152.81526662740833
133.9841726398857
115.45586195128847
97.26403238894098
79.48793840198657
62.31682300876395
46.25242235509121
32.81846621627476
25.988998598600894
29.40916458659526
40.93950693486812
55.92973589538035
72.16186954571745
88.91714410757889
105.93744068550367
123.11748470256362
140.41213043668168
157.8034495999244
175.287233786984
192.8667947861089
210.54985231346356
228.3468567220574
246.2700311808704
264.3327976785356
282.5494186174863
300.9347648569567
319.50416068725167
338.27327708990003
357.258056120832
376.47465581523863
395.93940889042045
415.66879088465873
435.6793948483736
455.98791065254875
476.6111076025212
497.5658194635846
518.8689312919594
540.5373676654021
562.5880820507768
357.50331228745455
335.4239939250859
313.73538764099715
292.4216996348844
271.4676884785203
250.85881935223279
230.58149579012175
210.623417274659
190.97414824702955
171.62605691264685
152.57593262353802
133.82792183307748
115.39920960287591
97.33192160230854
79.72066263023306
62.78462516513303
47.08464326805553
34.21212804239997
27.89323250200442
31.28708125843885
42.40807799003897
57.04651902928582
73.03748735202672
89.61981591549849
106.5071022941176
123.57867504823702
140.78079530680634
158.0904804262607
175.50039752245266
193.01184451560692
210.63119869156935
228.36799173193594
246.23380565008085
264.2416088687486
282.40534050227757
300.7396406939122
319.2596700662242
337.9809852506348
356.91945065671706
376.0911742015608
395.5124591964826
415.19976731967006
435.16968931519085
455.4389211583713
476.0242441501254
496.9425078881164
518.2106153953031
539.8455099188
561.8641630775178
356.62221310687494
334.5840628486113
312.93920342877254
291.67211731291104
270.76791940329076
250.21254074097604
229.99300407616028
210.09784831535592
190.51780254073793
171.24689544520257
152.2843610719828
133.6380846848587
115.33123381905214
97.41603105278273
80.0051746901354
63.352043931694745
48.08003874453749
35.83279220498537
30.057533340344925
33.433768965842646
44.13169699138077
58.38082099400236
74.09310445143821
90.47107327756935
107.19925460882578
124.1401294100759
141.23025209529527
158.44082243104987
175.76086744499983
193.18931943684566
210.7309696165163
228.39425977053082
246.1900090516998
264.13064518926797
282.229721506952
300.50160277853286
318.96125443948415
337.62409703509843
356.50590294573175
375.6227211430451
394.9908209051102
414.6266485815633
434.54679348575735
454.76796026811553
475.30694596509625
496.1806204825956
517.4059096593642
538.9997803262056
560.9792269689389
355.5811570948852
333.5916654962138
311.9985256276574
290.7865496057099
269.9412771028833
249.44919392521052
229.29805936478954
209.47740945566375
189.9793543953952
170.79988763359935
151.94112696767024
133.41534817801974
115.25269575835132
97.5170358625762
80.34152200179946
64.01670211954422
49.227991838699644
37.649355214534864
32.430349047950116
35.80044646220777
46.080434603085806
59.91747827486961
75.32091708381134
91.46669947777676
108.01155678326623
124.80056004777357
141.75983766559867
158.85419706644043
176.0686066227824
193.39933460230796
210.84937351958052
228.42592299991733
246.13892973104402
264.0002016568688
282.0228493443703
300.2209214937729
318.609159746605
337.20282904344356
356.017597092562
375.06944649715626
394.3746090374884
413.94951525056354
433.8107547438094
453.9750441571081
474.4592006608971
495.28011953244015
516.4547548009072
538.0001022652144
559.9331844114307
354.3802686323574
332.44692875340445
310.913490436423
289.76515045669515
268.987943568451
248.56900138804235
228.49693946794457
208.76245119244805
189.35924659347842
170.28558901434667
151.5469156515807
133.16052906403354
115.16449634413172
97.63572925090301
80.72976450757629
64.77597276078228
50.517629847475966
39.63414502258707
34.96985216484035
38.346529039107565
48.226191641818474
61.64083193637026
76.71243862014289
92.60197567613297
108.94134402460038
125.55848490083545
142.36878327860336
159.33028002435475
176.42357244352795
193.64202586124847
210.98665659038534
228.463291524825
246.08090925551693
263.8506281971289
281.78506567431873
299.8979182570441
318.2036786288909
336.71743923836505
355.4547525501438
374.4315290520932
393.66396095270795
413.1684636714782
432.96162985319637
453.06019233422506
473.4809936083324
494.24096009305435
515.3570800144716
536.8463840894888
558.7259284414888
353.0196934401951
331.15000106376897
309.68425701655036
288.6080996486622
267.90813130292645
247.57222295278618
227.58996890636098
207.95338300823943
188.657996337238
169.7046480142851
151.10252577377463
132.87457629605078
115.06767688334553
97.7730202175047
81.16997630007569
65.62704692711078
51.93821799844171
41.763241578577315
37.642989062475216
41.039088354762036
50.54349169666422
63.53529523291767
78.25874954911835
93.87178476451132
109.98567086477343
126.41224539958077
143.05622150272353
159.86870352533654
176.8257170798662
193.9175497611999
211.14310266629644
228.50672348656386
246.01634276967303
263.6823302420969
281.51676689236183
299.53296643737167
317.7451514112666
336.1682279328508
354.8176250614935
373.70917737887555
392.8590370745672
412.2836065277365
431.99948535917986
452.0234278575395
472.37230795920664
493.0630898211692
514.1128026166285
535.5385185962292
557.357333751271
351.49959951966656
329.7010532982869
308.3110083543809
287.315603738792
266.7020844249528
246.4591571653154
226.57752068563065
207.05067564466498
187.8761980746528
169.05780926148006
150.60887276004746
132.55857383579888
114.96341972862454
97.92993088013904
81.66224728501743
66.56699849084481
53.47944392330986
44.01631583673335
40.423972284567185
43.8517507189141
53.0097746989095
65.5857806804776
79.95072352181616
95.27071398173669
111.14135613501608
127.36002557230319
143.8211937776686
160.46905884669746
177.27498798691224
194.2260834051217
211.31903307225386
228.5566251364109
245.94567937108198
263.49576939033835
281.2184050167575
299.1264923975025
317.2339672261984
335.5555389272925
354.1065077493243
372.9026308219819
391.96002174113636
411.2950735170172
430.92439806615175
450.8647775984027
471.1331246886693
491.74644879442235
512.7218276483059
534.0763824227483
555.8272558963947
349.8201782146498
328.100279737711
306.7939522389149
285.88789712616074
265.3700799389244
245.23014289479937
225.46001836179585
206.05486375143107
187.01452678978424
168.34591742631636
150.06699280289757
132.21374383302404
114.85304896165827
98.10759347333027
82.20668481581367
67.5928433631159
55.13160336126151
46.37625411960528
43.292770368037395
46.76350528610495
55.6053747547033
67.77799372267607
81.77922169020857
96.7931524903988
112.40502824297715
128.39987197873006
144.66265848558686
161.1308990462648
177.77132841562644
194.5678242517613
211.51480639713986
228.61345087309695
245.8694224918341
263.2914641159915
280.8904886626853
298.6789766531676
316.6705652749317
334.8797607943029
353.3217323544492
372.01216063153754
390.96712418161354
410.2030121342101
429.7364555982345
449.58427256066983
469.76342266292636
490.29096932565085
511.18404744120454
532.4598353774941
554.1355304105284
347.9816453941789
326.3478991666961
305.1333223554989
284.32524325494705
263.9124291791798
243.88556116747236
224.23793841876636
204.9665489408159
186.07374179321863
167.56992162798767
149.4780473997782
131.84145017486983
114.73803107328285
98.30724701835878
82.80341524405084
68.70159160483233
56.88570547506688
48.82871974191279
46.23381009509785
49.757625138522144
58.31332325359163
70.09861255562953
83.73525195144242
98.43338104519069
113.7731695097738
129.52971401625152
145.5794993805759
161.85374183563087
178.3146779240452
194.9429898450262
211.73081819043267
228.6777032265217
245.7881302679319
263.0699905108002
280.533584090657
298.19095513989424
316.05543621997435
334.14132830849013
352.4636706233297
371.03807124000787
389.880579625471
409.00758856817646
428.4357570501212
448.18194826297827
468.2631787403917
488.69657577963204
509.49934115554424
530.6887197120877
552.2819718322424
345.98424275305945
324.4441560780641
303.32937949568964
282.6279359574122
262.32947943809796
242.4258372508227
222.91181298409984
203.7864032833055
185.05469105439462
166.730880446853
148.84332846418346
131.44320240068924
114.61997561285787
98.5302336777241
83.45258534032169
69.89029160659342
58.73351784716492
51.36172700077448
49.23493745894856
52.82076493109223
61.11907181503105
72.53537824543406
85.81009318126479
100.18565183222802
115.24215852529956
130.74738417765434
146.57053422893722
162.63707255452857
178.90497286625694
195.35181745595332
211.9675005603671
228.74993276696938
245.70241587589175
262.8319830403743
280.1483163136317
297.663020575906
315.38912370167066
333.3407240179657
351.53273584489506
369.9807016866479
388.7006505495787
407.7089887196145
427.02241373667096
446.6578451931771
466.6323679154276
486.9631844012281
507.6675742974623
528.7628593418599
550.2663726508306
343.8282392278569
322.3893219850363
301.3824128836004
280.79630094136894
260.62161578941243
240.8514430083863
221.4822329140194
202.51517328613147
183.95831612471068
165.82996758899117
148.16426403744754
131.02065997579015
114.50063577709858
98.77799481125746
84.15436355366059
71.15606620469
60.6675692956218
53.9652590625228
52.286614777448975
55.9422360765557
64.01019254103386
75.0771187347825
87.9953869563377
102.04425743641173
116.80830970225774
132.05063788278568
147.63452351734048
163.4803471966754
179.54214683753662
195.79456361952955
212.22532165327277
228.8307379169882
245.6129478132838
262.57813529323766
279.735370244878
297.09582390745
314.6722259697109
332.47847995309064
350.52938453645214
368.84042719280046
387.42762806907785
406.3074193480967
425.4965500507483
445.0120093451517
464.87096351524394
485.090703165338
505.68859822597796
526.682059024038
548.0885021791861
341.51393252499935
320.1836968391006
299.29274161917306
278.830697427812
258.7892631205187
239.16289954958137
219.94985128434422
201.15368440309598
182.78565770730367
164.86847825534207
147.44242463131192
130.5756369150249
114.38190890637576
99.05206675493662
84.90894109184676
72.4961411051089
62.68112520830996
56.63093903244305
55.38131099142369
59.11343682018854
66.97608745570174
77.71372715008991
90.28320069305894
104.0035886383298
118.46790943420531
133.4371725583985
148.77017909420553
164.3829954372497
180.22613105282616
196.27150354683087
212.5047849909893
228.92076463968277
245.52045009647725
262.30920069787345
279.295491865374
296.4900758201503
313.9053976185637
331.55517946657363
349.4541182774373
367.617660890941
386.0618334782514
404.8031093569002
423.8583044397175
443.2444928497774
462.9789374621952
483.079031660776
503.5622496611753
524.4461035042497
545.7481053631849
339.04165075702184
317.82761055048957
297.0607162387057
276.7315199454473
256.8328883900414
237.36078020338707
218.31538733066012
199.70284613263775
181.5378619379012
163.84783627389717
146.67953023299052
130.1101067439494
114.2658368549678
99.35407634898822
85.71653282144416
73.90786632877823
64.76814645016445
59.351753155017825
58.51304201816908
62.32740891017324
70.00772284961927
80.43611071396735
92.66606676102106
106.05818132662152
120.21724847633678
134.90464569717614
149.9761726200602
165.34442361208397
180.95685463386127
196.7829303906344
212.80642864079925
229.02070597445635
245.42570234552147
262.0259931793479
278.8294893863945
295.84654829736587
313.0893514135805
330.57145919736655
348.30748568874463
366.31285571003843
384.6036199480036
403.19631122540113
422.1078305125394
441.3553547129767
460.95626061492885
480.9280610216484
501.288350206721
522.0547566438162
543.2449015391762
336.41175418196167
315.3214246078111
294.68672039357796