# vtk DataFile Version 2.0
mesh vtk view
ASCII
DATASET UNSTRUCTURED_GRID
POINTS 89 double
0.0 0.0 0.0
5.0 0.0 0.0
-2.0837722639967725e-14 1.999999999999999 -0.19188600447688295
4.99999999999998 2.0 0.19186770753512403
-3.570883210411842e-14 3.9999999999999982 -0.47363236941955994
4.999999999999965 4.0 0.47363751022940725
-4.4494703844612224e-14 5.999999999999998 -0.6553726699967795
4.999999999999955 6.0 0.6554565798836105
-4.454368078503114e-16 0.1999999999996282 -0.0031355977571894235
-1.6623838341894355e-15 0.39999999999911356 -0.01199934623537702
-3.4774846682403572e-15 0.5999999999985297 -0.025776978460648907
-5.733265959539108e-15 0.7999999999979458 -0.04365514446287761
-8.280521126401587e-15 0.9999999999973836 -0.06482232786276582
-1.0997990545019578e-14 1.1999999999978894 -0.0884700401293198
-1.3730369464008668e-14 1.3999999999984172 -0.11379423758587492
-1.6352050630622187e-14 1.599999999998944 -0.13999690645409998
-1.8758768458223613e-14 1.799999999999471 -0.16628776152733982
5.0 0.1999999999996283 0.0031351363307005717
4.999999999999998 0.3999999999991138 0.011997641612148892
4.9999999999999964 0.59999999999853 0.02577345087277476
4.999999999999995 0.7999999999979462 0.04364940324513813
4.999999999999992 0.9999999999973843 0.0648141584333292
4.999999999999989 1.19999999999789 0.0884593908240891
4.999999999999987 1.399999999998418 0.11378120633169289
4.999999999999984 1.599999999998945 0.13998172727704913
4.999999999999982 1.799999999999472 0.16627079090250094
0.49999999999957345 2.000000000000002 -0.1540361634078805
0.9999999999983911 2.000000000000003 -0.11619853871694928
1.4999999999969311 2.0000000000000027 -0.07795471413926902
1.9999999999954872 2.000000000000001 -0.03919341275088325
2.499999999996178 1.9999999999999987 -9.301803514410428e-06
2.9999999999969393 1.9999999999999964 0.0391748703731346
3.4999999999976983 1.999999999999995 0.07793633087537967
3.9999999999984595 1.9999999999999947 0.1161803388800209
4.499999999999219 1.9999999999999964 0.1540180491309056
-2.2725259208910692e-14 2.199999999999999 -0.21817291978424896
-2.4634195639814873e-14 2.3999999999999986 -0.24658779569187236
-2.6434961685594375e-14 2.5999999999999988 -0.27645640566012597
-2.8214023293805124e-14 2.7999999999999985 -0.3071212544795767
-2.986299548674645e-14 2.9999999999999987 -0.33794358743927666
-3.13807304842963e-14 3.199999999999999 -0.3683054537802127
-3.274394455333243e-14 3.399999999999998 -0.397611781227161
-3.3925382464797696e-14 3.5999999999999983 -0.4252924198009821
-3.4932729139815344e-14 3.799999999999998 -0.4508041146618067
4.999999999999978 2.2 0.21815385377265287
4.999999999999976 2.4 0.2465685853811166
4.999999999999974 2.6 0.2764377262506897
4.9999999999999725 2.8 0.3071038170434959
4.999999999999972 3.0 0.33792812439858666
4.99999999999997 3.2 0.3682927044699336
4.999999999999969 3.4 0.3976024775921286
4.999999999999967 3.6 0.42528727227629776
4.999999999999966 3.8 0.45080379828618883
0.49999999999955863 3.999999999999999 -0.39201376848785213
0.9999999999983763 3.9999999999999982 -0.3026045807581193
1.4999999999969165 3.999999999999997 -0.20626434063471843
1.9999999999954725 3.999999999999995 -0.1046498468083303
2.499999999996164 3.9999999999999942 3.89051956546328e-05
2.999999999996925 3.9999999999999933 0.10472455866255458
3.499999999997684 3.999999999999994 0.20632985840751117
3.999999999998445 3.999999999999995 0.30265510534286827
4.499999999999205 3.9999999999999973 0.39204396793934193
-3.64595641881912e-14 4.199999999999998 -0.49512668270605686
-3.729107908448582e-14 4.399999999999999 -0.5167004741496792
-3.820436670322003e-14 4.599999999999998 -0.5379831101097949
-3.9146349750975706e-14 4.799999999999998 -0.558638939433933
-4.018052213239572e-14 4.999999999999998 -0.5783687277285969
-4.119057205730302e-14 5.199999999999998 -0.5969110499186796
-4.216160552926996e-14 5.399999999999999 -0.6140436208631412
-4.307409299797721e-14 5.599999999999998 -0.6295845463532875
-4.383017451532667e-14 5.799999999999998 -0.643393479468461
4.999999999999964 4.2 0.4951378523260883
4.999999999999963 4.4 0.516718209171228
4.999999999999962 4.6 0.5380079114915641
4.999999999999961 4.8 0.5586712652822525
4.99999999999996 5.0 0.5784089865553032
4.999999999999959 5.2 0.596959594407511
4.999999999999957 5.4 0.6141007421721737
4.9999999999999565 5.6 0.6296504689771835
4.999999999999956 5.8 0.6434683566801354
0.49999999999954986 5.999999999999999 -0.5457808271662205
0.9999999999983674 6.0 -0.4231799154875918
1.4999999999969071 5.999999999999999 -0.28930004345268456
1.9999999999954632 5.999999999999998 -0.14698556130526313
2.499999999996154 5.999999999999997 0.00015776662825723968
2.999999999996915 5.9999999999999964 0.14729104052049863
3.499999999997674 5.9999999999999964 0.2895757733692584
3.9999999999984346 5.9999999999999964 0.4234074129126987
4.499999999999194 5.999999999999998 0.5459435420670435

CELLS 90 270
2 0 8
2 8 9
2 9 10
2 10 11
2 11 12
2 12 13
2 13 14
2 14 15
2 15 16
2 16 2
2 1 17
2 17 18
2 18 19
2 19 20
2 20 21
2 21 22
2 22 23
2 23 24
2 24 25
2 25 3
2 2 26
2 26 27
2 27 28
2 28 29
2 29 30
2 30 31
2 31 32
2 32 33
2 33 34
2 34 3
2 2 35
2 35 36
2 36 37
2 37 38
2 38 39
2 39 40
2 40 41
2 41 42
2 42 43
2 43 4
2 3 44
2 44 45
2 45 46
2 46 47
2 47 48
2 48 49
2 49 50
2 50 51
2 51 52
2 52 5
2 4 53
2 53 54
2 54 55
2 55 56
2 56 57
2 57 58
2 58 59
2 59 60
2 60 61
2 61 5
2 4 62
2 62 63
2 63 64
2 64 65
2 65 66
2 66 67
2 67 68
2 68 69
2 69 70
2 70 6
2 5 71
2 71 72
2 72 73
2 73 74
2 74 75
2 75 76
2 76 77
2 77 78
2 78 79
2 79 7
2 6 80
2 80 81
2 81 82
2 82 83
2 83 84
2 84 85
2 85 86
2 86 87
2 87 88
2 88 7

CELL_TYPES 90
3
3
3
3
3
3
3
3
3
3
3
3
3
3
3
3
3
3
3
3
3
3
3
3
3
3
3
3
3
3
3
3
3
3
3
3
3
3
3
3
3
3
3
3
3
3
3
3
3
3
3
3
3
3
3
3
3
3
3
3
3
3
3
3
3
3
3
3
3
3
3
3
3
3
3
3
3
3
3
3
3
3
3
3
3
3
3
3
3
3

POINT_DATA 89
SCALARS MODE2_15.7142_Hz float 1
LOOKUP_TABLE default
0.0
0.0
0.011193350261151508
0.011192282939548904
0.02762855488280767
0.027628854763382095
0.038230072416478814
0.03823496715987729
0.0001829098691693831
0.0006999618637303263
0.0015036570768711865
0.002546550093667861
0.00378130245866134
0.00516075234087699
0.006637997192509372
0.0081664862098225
0.009700119422428159
0.00018288295262420005
0.0006998624273753522
0.0015034513009118612
0.002546215189299725
0.0037808259086108712
0.0051601311314051984
0.0066372370360154205
0.008165600757827868
0.009699129469312557
0.008985442865459698
0.006778248091822043
0.004547358324790694
0.00228628241046819
5.426052050072751e-07
0.0022852007717661855
0.004546285967730481
0.006777186434667887
0.00898438619930283
0.012726753654081192
0.014384288082025892
0.016126623663507353
0.017915406511308647
0.01971337593395781
0.021484484803845745
0.023194020571584397
0.024808724488390627
0.026296906688605397
0.01272564147007142
0.014383167480565139
0.016125534031290235
0.017914389327537264
0.019712473923250894
0.021483741094079467
0.02319347785954084
0.024808424216117377
0.026296888233361022
0.022867469828458047
0.017651933877556963
0.012032086537025245
0.006104574397152602
2.2694697465202474e-06
0.0061089325886490185
0.012035908407104822
0.017654881145000655
0.022869231463128286
0.028882389824519992
0.030140860992064627
0.03138234808973805
0.03258727146697943
0.03373817578416816
0.03481981124525632
0.03581921121701658
0.03672576520394178
0.037531286302326904
0.028883041385688493
0.030141895534988306
0.031383794837007914
0.032589157141464736
0.03374052421572603
0.03482264300710482
0.03582254329337681
0.03672961069033571
0.03753565413967457
0.03183721491802954
0.024685495070109528
0.016875835868073272
0.008574157742807018
9.20305331500565e-06
0.008591977363695755
0.016891920113206744
0.024698765753240762
0.03184670662057755

