# vtk DataFile Version 2.0
mesh vtk view
ASCII
DATASET UNSTRUCTURED_GRID
POINTS 89 double
0.0 0.0 0.0
5.0 0.0 0.0
0.4331386078055584 2.0174335047637726 -4.5387629276295055e-14
5.433138606540801 1.9825663049207487 3.7854495252599506e-14
1.0830281102326778 4.027564970749185 -1.6435767324292377e-13
6.083028319672142 3.9724339972516987 1.2020135356774404e-13
1.5375432088590932 6.031145508769615 -2.595674370349927e-13
6.537543063551221 5.96885320743044 1.43762790120719e-13
0.007315268466793393 0.20174410348799793 -5.909337047388064e-16
0.027932355396290444 0.4034881446130347 -2.167997243673886e-15
0.059858527252849264 0.6052320840106412 -4.569576209237007e-15
0.1011020871686681 0.8069758823172091 -7.586223310376272e-15
0.1496733992810251 1.0087195001693725 -1.1315058933369437e-14
0.20358621829226992 1.2104628982040533 -1.64226699334449e-14
0.26085925909294266 1.4122060370539227 -2.2167713395408366e-14
0.3195179414062556 1.6139488773488833 -2.8697104529272414e-14
0.377596244571118 1.8156913797132381 -3.6939157743193746e-14
5.007315268619954 0.19825598574857983 5.457761044816816e-16
5.027932356877589 0.3965119938565078 2.0430207886568413e-15
5.059858530772153 0.5947680696795649 4.3539331655848034e-15
5.101102092971138 0.7930242585702776 7.473053131009712e-15
5.149673407147747 0.9912806058752421 1.125382185113945e-14
5.203586227541128 1.1895371569330946 1.573216034073194e-14
5.260859268579731 1.3877939570679678 2.0530727940706835e-14
5.319517949525997 1.586051051588864 2.5945429428881638e-14
5.377596249259564 1.7843084857847828 3.16349810314019e-14
0.9334349005995661 1.9197678499620212 -1.1302827398798521e-13
1.4336653971780762 1.8846754458041457 -2.0014336133868483e-13
1.9338300625517852 1.8967400466348574 -2.413913471732613e-13
2.4339288717244796 1.9404079026170202 -2.4511050125729417e-13
2.933961809698863 1.9999998797791643 -2.112642260213631e-13
3.4339288714728275 2.059591859249102 -1.5708188560834775e-13
3.933830062046382 2.10325972200142 -1.0569335319756572e-13
4.433665396418983 2.1153243336070955 -5.056110611383851e-14
4.9334348995871755 2.0802319434765573 4.444649962317908e-15
0.4904632571333368 2.218448974950613 -5.5611685346194116e-14
0.5540210055142838 2.4194639876593147 -6.677050357984358e-14
0.6220765426183789 2.620478520845348 -7.87473505174174e-14
0.6929127540289799 2.82149255244845 -9.13901156238898e-14
0.7648329319884636 3.0225060603898495 -1.0510274408624913e-13
0.8361630774472255 3.2235190225693415 -1.179239846377421e-13
0.9052542378634882 3.4245314168623215 -1.3123638309214487e-13
0.9704848259455794 3.6255432211168412 -1.4275728987826496e-13
1.030262865348559 3.826554413150776 -1.530419950437761e-13
5.490463247621184 2.1815507735838615 4.5046452609631634e-14
5.554020987253354 2.38053568098308 5.3380957748070296e-14
5.622076517735942 2.5795210543827594 6.253052451650998e-14
5.692912727282297 2.778506921008556 7.204325497599254e-14
5.764832910766037 2.977493308043453 8.157635257143312e-14
5.836163071770121 3.1764802426236436 9.039532522404153e-14
5.905254260386963 3.375467751834364 9.929375593470652e-14
5.970484891961345 3.5744558627057588 1.0737504881586738e-13
6.0302629927881055 3.7734446022088477 1.1445999152848133e-13
1.5837689877507846 3.9381406273422814 -8.30339763575108e-14
2.084345347143418 3.904478522931181 2.2727083237893094e-14
2.5847571009186616 3.9128279286779755 9.331698617522777e-14
3.0850041865718305 3.949324852791332 1.2775733869848967e-13
3.585086566596986 3.9999997672383207 1.421000693926242e-13
4.085004228486623 4.050674659671081 1.428383756455622e-13
4.584757184739747 4.087171517439321 1.3064213385466263e-13
5.084345472858056 4.095520811573909 1.1921008798362117e-13
5.583769155340167 4.061858548629213 1.13424488911574e-13
1.1328833966263874 4.227926175002083 -1.768703801104662e-13
1.1842630130506715 4.428286698664161 -1.88347199043452e-13
1.2361569668585355 4.628646534497128 -1.9945470322140838e-13
1.2875940626437097 4.829005675221065 -2.1031603057029638e-13
1.3376435916257594 5.0293641135120595 -2.2036366129365164e-13
1.385417006506106 5.229721841999875 -2.296884722628609e-13
1.4300695513266901 5.4300788532656785 -2.3834470457563403e-13
1.4708018172435788 5.630435139839885 -2.463910502001713e-13
1.5068611965614365 5.830790694200163 -2.5407804272889223e-13
6.132883712422597 4.172072754493699 1.2443227805520846e-13
6.184263449621423 4.3717121877592495 1.2757174422700857e-13
6.236157521359734 4.5713523073245295 1.3048108166691184e-13
6.287594714986423 4.7709931233907135 1.3290373007234184e-13
6.33764430449699 4.9706346460811845 1.3519019219949037e-13
6.385417725392608 5.170276885438772 1.3726158078107721e-13
6.430070204540623 5.3699198514230675 1.3975506626692384e-13
6.470802315948213 5.5695635539078365 1.41527736117179e-13
6.506861434794565 5.769208002678609 1.4262843361987046e-13
2.038594966543146 5.979353015368631 -1.9288201744835438e-13
2.5394131626820124 5.957853416976451 -1.1614784193309542e-13
3.039997673072514 5.959159828623475 -3.7900136215502223e-14
3.5403484089851913 5.975736301227484 2.536853344587957e-14
4.040465317179807 5.99999788610387 5.935240138554809e-14
4.540348379907419 6.024259593879138 7.730179715051154e-14
5.039997614919242 6.040836432501251 9.128048289991188e-14
5.539413075462056 6.042143445406356 1.0484892215096898e-13
6.038594850270019 6.020644670899289 1.2369813939770955e-13

CELLS 90 270
2 0 8
2 8 9
2 9 10
2 10 11
2 11 12
2 12 13
2 13 14
2 14 15
2 15 16
2 16 2
2 1 17
2 17 18
2 18 19
2 19 20
2 20 21
2 21 22
2 22 23
2 23 24
2 24 25
2 25 3
2 2 26
2 26 27
2 27 28
2 28 29
2 29 30
2 30 31
2 31 32
2 32 33
2 33 34
2 34 3
2 2 35
2 35 36
2 36 37
2 37 38
2 38 39
2 39 40
2 40 41
2 41 42
2 42 43
2 43 4
2 3 44
2 44 45
2 45 46
2 46 47
2 47 48
2 48 49
2 49 50
2 50 51
2 51 52
2 52 5
2 4 53
2 53 54
2 54 55
2 55 56
2 56 57
2 57 58
2 58 59
2 59 60
2 60 61
2 61 5
2 4 62
2 62 63
2 63 64
2 64 65
2 65 66
2 66 67
2 67 68
2 68 69
2 69 70
2 70 6
2 5 71
2 71 72
2 72 73
2 73 74
2 74 75
2 75 76
2 76 77
2 77 78
2 78 79
2 79 7
2 6 80
2 80 81
2 81 82
2 82 83
2 83 84
2 84 85
2 85 86
2 86 87
2 87 88
2 88 7

CELL_TYPES 90
3
3
3
3
3
3
3
3
3
3
3
3
3
3
3
3
3
3
3
3
3
3
3
3
3
3
3
3
3
3
3
3
3
3
3
3
3
3
3
3
3
3
3
3
3
3
3
3
3
3
3
3
3
3
3
3
3
3
3
3
3
3
3
3
3
3
3
3
3
3
3
3
3
3
3
3
3
3
3
3
3
3
3
3
3
3
3
3
3
3

POINT_DATA 89
SCALARS MODE3_19.7959_Hz float 1
LOOKUP_TABLE default
0.0
0.0
0.00842895877809963
0.008428958902352856
0.02106569970441862
0.021065704286109887
0.029902806668902354
0.02990280434962054
0.0001462282334823463
0.0005473476866237185
0.001168353547044403
0.001970547906736685
0.0029152505168432374
0.003963845290340309
0.005077813092024696
0.006218766411933759
0.0073484860403609025
0.00014622783396988658
0.0005473473815682226
0.0011683533549960027
0.0019705478307199585
0.00291525054962212
0.003963845414911769
0.005077813281627815
0.006218766629930736
0.0073484862400344094
0.008571075181112836
0.008725453243587611
0.008671244302165516
0.008516699602084227
0.00843814629977435
0.008516698967225633
0.008671243250905862
0.008725452127001534
0.008571074430703311
0.00954353005921587
0.010779276795442492
0.012102485186295161
0.013479783305155556
0.014878188758173245
0.01626515674651195
0.01760862764069545
0.01887707339262975
0.020039542068053112
0.009543530058183902
0.01077927666680932
0.012102484974485603
0.013479783102751934
0.014878188706908527
0.016265157037895515
0.01760862851637113
0.018877075144551638
0.020039545038538092
0.02110758527557035
0.02116614355550101
0.02116049595874378
0.021120301493016327
0.021098905461682457
0.021120301864835923
0.021160496720647588
0.02116614485500447
0.021107587615908564
0.022034979980370288
0.023033904165733254
0.02404283870657604
0.025042903027371482
0.02601600273781094
0.026944862514024955
0.027813058052832434
0.02860504653685194
0.029306195081890085
0.02203498663195085
0.02303391316924055
0.02404285000739862
0.02504291623471192
0.02601601712520432
0.02694487701989406
0.02781307128105337
0.028605056757295605
0.029306200230894676
0.029919817960940315
0.029944250125026602
0.029954927159314925
0.029954934703888506
0.02995349227859837
0.02995493288150151
0.02995492410171848
0.029944246760073127
0.029919815096645035

