# vtk DataFile Version 2.0
mesh vtk view
ASCII
DATASET UNSTRUCTURED_GRID
POINTS 89 double
0.0 0.0 0.0
5.0 0.0 0.0
0.5053283757731515 2.020339088891068 -5.295223415567756e-14
5.505328374297601 1.979660689074207 4.416357779469942e-14
1.2635327952714575 4.032159132540716 -1.9175061878341107e-13
6.263533039617499 3.967839663460315 1.4023491249570136e-13
1.7938004103356087 6.0363364268978845 -3.028286765408248e-13
6.793800240809757 5.963662075335513 1.6772325514083883e-13
0.008534479877925624 0.2020347874027262 -6.894226555286074e-16
0.03258774796233885 0.40406950204868824 -2.5293301176195333e-15
0.06983494846165747 0.6061040980126597 -5.331172244109841e-15
0.11795243503011278 0.8081385293704196 -8.850593862105648e-15
0.17461896582786263 1.010172750198037 -1.320090208893101e-14
0.2375172546743149 1.2122067145717472 -1.915978158901905e-14
0.30433580227509976 1.4142403765631735 -2.586233229464309e-14
0.3727709316406315 1.6162736902405397 -3.347995528415115e-14
0.4405289519996377 1.8183066096655325 -4.309568403372603e-14
5.008534480056613 0.19796531670673845 6.367387885619618e-16
5.03258774969052 0.39593065949940687 2.3835242534329816e-15
5.069834952567512 0.5938960812930707 5.07958869318227e-15
5.117952441799661 0.7918616349989994 8.718561986177996e-15
5.174618975005704 0.9898273735215518 1.3129458826329359e-14
5.237517265464649 1.1877933497556286 1.835418706418726e-14
5.304335813343019 1.3857596165795594 2.395251593082464e-14
5.3727709411136635 1.5837262268538503 3.0269667667028574e-14
5.440528957469491 1.781693233415668 3.6907477869968886e-14
1.0056740506995614 1.9063958249556914 -1.318663196526494e-13
1.5059429633746868 1.8654546867715034 -2.335005882284656e-13
2.0061350729775906 1.8795300544073337 -2.816232383688048e-13
2.506250350345975 1.9304758863865235 -2.8596225146684317e-13
3.0062887779826406 1.9999998597423583 -2.464749303582569e-13
3.506250350052139 2.0695238357906187 -1.832621998764057e-13
4.006135072387826 2.1204696756683235 -1.2330891206382667e-13
4.505942962489067 2.1345450558749444 -5.898795713281159e-14
5.005674049518498 2.0936039340559836 5.185424956037559e-15
0.5722071333222263 2.2215238041090486 -6.488029957055979e-14
0.6463578397666644 2.4227079856025338 -7.789892084315084e-14
0.7257559663881086 2.6238916076529057 -9.187190893698697e-14
0.8083982130338099 2.825074644523192 -1.0662180156120475e-13
0.8923050873198741 3.0262570704548244 -1.2261986810062398e-13
0.9755235903550964 3.227438859664232 -1.3757798207736578e-13
1.0561299441740695 3.428619986339375 -1.5310911360750236e-13
1.1322322969365093 3.629800424636315 -1.6655017152464244e-13
1.2019733429066521 3.8309801486759056 -1.7854899421773879e-13
5.5722071222247145 2.178475902514505 5.2554194711236907e-14
5.646357818462247 2.3772916278135936 6.227778403941535e-14
5.725755937358599 2.576107896779886 7.295227860259497e-14
5.808398181829347 2.7749247411766484 8.405046413865797e-14
5.892305062560377 2.9737421927173617 9.517241133333864e-14
5.975523583731809 3.172560283060917 1.0546121276138178e-13
6.056129970451456 3.3713790438067583 1.158427152571576e-13
6.132232373954903 3.5701985064900517 1.252708902851786e-13
6.201973491586123 3.7690187025769895 1.335366567832282e-13
1.764397152375983 3.9278307318993284 -9.687297241709592e-14
2.2650695716675857 3.8885582767530447 2.651493044420861e-14
2.7655499510722796 3.8982992501243046 1.0886981720443239e-13
3.2658382176678846 3.940878994923221 1.4905022848157127e-13
3.765934327697117 3.9999997284447075 1.657834142913949e-13
4.265838266568234 4.059120436282928 1.6664477158648925e-13
4.7655500488634175 4.101700103679208 1.5241582283043973e-13
5.265069718334652 4.111440946836227 1.3907843598089137e-13
5.764397347896988 4.072168306734082 1.3232857039683633e-13
1.3216972960641187 4.232580537502431 -2.0634877679554387e-13
1.38164018189245 4.433001148441521 -2.1973839888402732e-13
1.4421831280016246 4.633420956913316 -2.326971537583098e-13
1.5021930730843278 4.833839954424576 -2.4536870233201243e-13
1.5605841902300526 5.034258132430736 -2.5709093817592693e-13
1.6163198409237902 5.234675482333188 -2.67969884306671e-13
1.668414476547805 5.435091995476625 -2.7806882200490635e-13
1.715935453450842 5.635507663146533 -2.8745622523353323e-13
1.7580047293216758 5.835922476566857 -2.964243831837076e-13
6.32169766449303 4.167418213575981 1.4517099106440988e-13
6.381640691224994 4.366997552385791 1.4883370159817666e-13
6.442183774919689 4.566577691878617 1.5222792861139716e-13
6.502193834150828 4.7661586439558326 1.550543517510655e-13
6.5605850219131545 4.965740420428048 1.5772189089940544e-13
6.6163206796247085 5.1653230330119015 1.6013851091125674e-13
6.668415238630727 5.364906493326911 1.6304757731141113e-13
6.715936035272916 5.564490812892476 1.6511569213670881e-13
6.7580050072603255 5.764076003125044 1.663998392231822e-13
2.2950274609670718 5.975911851263404 -2.2502902035641344e-13
2.795982023129279 5.9508289864725255 -1.355058155886113e-13
3.2966639519184406 5.9523531333940545 -4.421682558475259e-14
3.797073143816805 5.971692351432065 2.959662235352616e-14
4.297209536710409 5.999997533787848 6.924446828313944e-14
4.797073109892494 6.0283028595256605 9.018543000893013e-14
5.29666388407283 6.047642504584794 1.0649389671656385e-13
5.795981921372651 6.049167352974082 1.2232374250946381e-13
6.295027325315148 6.024085449382503 1.4431449596399446e-13

CELLS 90 270
2 0 8
2 8 9
2 9 10
2 10 11
2 11 12
2 12 13
2 13 14
2 14 15
2 15 16
2 16 2
2 1 17
2 17 18
2 18 19
2 19 20
2 20 21
2 21 22
2 22 23
2 23 24
2 24 25
2 25 3
2 2 26
2 26 27
2 27 28
2 28 29
2 29 30
2 30 31
2 31 32
2 32 33
2 33 34
2 34 3
2 2 35
2 35 36
2 36 37
2 37 38
2 38 39
2 39 40
2 40 41
2 41 42
2 42 43
2 43 4
2 3 44
2 44 45
2 45 46
2 46 47
2 47 48
2 48 49
2 49 50
2 50 51
2 51 52
2 52 5
2 4 53
2 53 54
2 54 55
2 55 56
2 56 57
2 57 58
2 58 59
2 59 60
2 60 61
2 61 5
2 4 62
2 62 63
2 63 64
2 64 65
2 65 66
2 66 67
2 67 68
2 68 69
2 69 70
2 70 6
2 5 71
2 71 72
2 72 73
2 73 74
2 74 75
2 75 76
2 76 77
2 77 78
2 78 79
2 79 7
2 6 80
2 80 81
2 81 82
2 82 83
2 83 84
2 84 85
2 85 86
2 86 87
2 87 88
2 88 7

CELL_TYPES 90
3
3
3
3
3
3
3
3
3
3
3
3
3
3
3
3
3
3
3
3
3
3
3
3
3
3
3
3
3
3
3
3
3
3
3
3
3
3
3
3
3
3
3
3
3
3
3
3
3
3
3
3
3
3
3
3
3
3
3
3
3
3
3
3
3
3
3
3
3
3
3
3
3
3
3
3
3
3
3
3
3
3
3
3
3
3
3
3
3
3

POINT_DATA 89
SCALARS MODE3_19.7959_Hz float 1
LOOKUP_TABLE default
0.0
0.0
0.00842895877809963
0.008428958902352856
0.02106569970441862
0.021065704286109887
0.029902806668902354
0.02990280434962054
0.0001462282334823463
0.0005473476866237185
0.001168353547044403
0.001970547906736685
0.0029152505168432374
0.003963845290340309
0.005077813092024696
0.006218766411933759
0.0073484860403609025
0.00014622783396988658
0.0005473473815682226
0.0011683533549960027
0.0019705478307199585
0.00291525054962212
0.003963845414911769
0.005077813281627815
0.006218766629930736
0.0073484862400344094
0.008571075181112836
0.008725453243587611
0.008671244302165516
0.008516699602084227
0.00843814629977435
0.008516698967225633
0.008671243250905862
0.008725452127001534
0.008571074430703311
0.00954353005921587
0.010779276795442492
0.012102485186295161
0.013479783305155556
0.014878188758173245
0.01626515674651195
0.01760862764069545
0.01887707339262975
0.020039542068053112
0.009543530058183902
0.01077927666680932
0.012102484974485603
0.013479783102751934
0.014878188706908527
0.016265157037895515
0.01760862851637113
0.018877075144551638
0.020039545038538092
0.02110758527557035
0.02116614355550101
0.02116049595874378
0.021120301493016327
0.021098905461682457
0.021120301864835923
0.021160496720647588
0.02116614485500447
0.021107587615908564
0.022034979980370288
0.023033904165733254
0.02404283870657604
0.025042903027371482
0.02601600273781094
0.026944862514024955
0.027813058052832434
0.02860504653685194
0.029306195081890085
0.02203498663195085
0.02303391316924055
0.02404285000739862
0.02504291623471192
0.02601601712520432
0.02694487701989406
0.02781307128105337
0.028605056757295605
0.029306200230894676
0.029919817960940315
0.029944250125026602
0.029954927159314925
0.029954934703888506
0.02995349227859837
0.02995493288150151
0.02995492410171848
0.029944246760073127
0.029919815096645035

