# vtk DataFile Version 2.0
mesh vtk view
ASCII
DATASET UNSTRUCTURED_GRID
POINTS 89 double
0.0 0.0 0.0
5.0 0.0 0.0
-0.21656930390277915 1.9912832476181137 2.269381463814752e-14
4.783430696729599 2.0087168475396258 -1.8927247626299747e-14
-0.5415140551163388 3.9862175146254075 8.217883662146186e-14
4.458485840163929 4.013783001374151 -6.0100676783872e-14
-0.7687716044295464 5.984427245615192 1.2978371851749632e-13
4.23122846822439 6.01557339628478 -7.188139506035948e-14
-0.0036576342333966955 0.1991279482554435 2.954668523694031e-16
-0.013966177698145218 0.3982559276921533 1.0839986218369426e-15
-0.02992926362642462 0.5973839579924745 2.284788104618503e-15
-0.050551043584334036 0.7965120588383148 3.793111655188134e-15
-0.07483669964051254 0.9956402499113901 5.657529466684717e-15
-0.10179310914613493 1.1947685508948085 8.211334966722447e-15
-0.1304296295464713 1.3938969814706657 1.108385669770418e-14
-0.15975897070312775 1.5930255613239757 1.4348552264636204e-14
-0.18879812228555898 1.792154310142589 1.8469578871596867e-14
4.996342365690023 0.20087200712515255 -2.728880522408407e-16
4.986033821561206 0.40174400307041674 -1.0215103943284205e-15
4.970070734613923 0.6026159651580126 -2.176966582792401e-15
4.949448953514431 0.8034878707117806 -3.736526565504854e-15
4.925163296426127 1.0043596970584552 -5.626910925569724e-15
4.898206886229437 1.205231421530288 -7.866080170365966e-15
4.869570365710135 1.4061030214636432 -1.0265363970353415e-14
4.840241025237002 1.6069744742039855 -1.2972714714440814e-14
4.811201875370219 1.8078457571068165 -1.5817490515700948e-14
0.2832825496996086 2.0401160750189895 5.651413699399259e-14
0.78316730140858 2.057662277097927 1.0007168066934239e-13
1.2830849687195354 2.0516299766825714 1.2069567358663061e-13
1.7830355641310223 2.02979604869149 1.2255525062864706e-13
2.283019095144867 2.000000060110418 1.0563211301068152e-13
2.7830355642590265 1.970204070375449 7.854094280417385e-14
3.283084968973388 1.94837013899929 5.2846676598782846e-14
3.783167301788228 1.9423378331964523 2.5280553056919248e-14
4.283282550205272 1.9598840282617214 -2.2223249811589535e-15
-0.24523162856666836 2.1907755125246937 2.7805842673097048e-14
-0.2770105027571418 2.3902680061703427 3.338525178992178e-14
-0.3110382713091893 2.589760739577326 3.937367525870869e-14
-0.3464563770144899 2.7892537237757744 4.5695057811944885e-14
-0.3824164659942317 2.9887469698050753 5.255137204312455e-14
-0.41808153872361264 3.1882404887153295 5.896199231887104e-14
-0.452627118931744 3.3877342915688393 6.561819154607242e-14
-0.4852424129727896 3.5872283894415795 7.137864493913246e-14
-0.5151314326742793 3.7867227934246115 7.652099752188802e-14
4.754768376189408 2.2092246132080695 -2.252322630481581e-14
4.722989506373323 2.4097321595084598 -2.6690478874035142e-14
4.6889617411320295 2.6102394728086202 -3.1265262258254976e-14
4.653543636358852 2.810746539495722 -3.6021627487996265e-14
4.6175835446169815 3.0112533459782735 -4.078817628571655e-14
4.581918464114939 3.2117598786881785 -4.5197662612020754e-14
4.547372869806519 3.4122661240828176 -4.9646877967353246e-14
4.514757554019328 3.612772068647121 -5.368752440793367e-14
4.484868503605948 3.813277698895576 -5.722999576424064e-14
-0.04188449387600063 4.030929686328859 4.1516988178755385e-14
0.4578273264259093 4.047760738534409 -1.1363541618946544e-14
0.9576214495360974 4.043586035661012 -4.665849308761387e-14
1.4574979067073468 4.025337573604334 -6.387866934924481e-14
1.9574567166958055 4.000000116380839 -7.105003469631209e-14
2.4574978857521286 3.9746626701644594 -7.141918782278108e-14
2.9576214076267053 3.9564142412803394 -6.532106692733129e-14
3.457827263568692 3.9522395942130455 -5.960504399181057e-14
3.9581154223287762 3.9690707256853934 -5.6712244455786986e-14
-0.5664416983131936 4.186036912498959 8.843519005523307e-14
-0.5921315065253356 4.38585665066792 9.417359952172596e-14
-0.6180784834292675 4.585676732751436 9.972735161070417e-14
-0.6437970313218546 4.7854971623894675 1.0515801528514815e-13
-0.6688217958128795 4.98531794324397 1.101818306468258e-13
-0.6927085032530528 5.185139079000063 1.148442361314304e-13
-0.7150347756633448 5.384960573367161 1.19172352287817e-13
-0.7354009086217892 5.584782430080057 1.2319552510008563e-13
-0.7534305982807181 5.784604652899918 1.270390213644461e-13
4.4335581437887015 4.213963622753151 -6.221613902760422e-14
4.407868275189289 4.414143906120376 -6.378587211350427e-14
4.381921239320134 4.614323846337735 -6.52405408334559e-14
4.356202642506789 4.814503438304643 -6.645186503617091e-14
4.331177847751505 5.014682676959408 -6.759509609974517e-14
4.307291137303697 5.214861557280614 -6.863079039053858e-14
4.284964897729688 5.415040074288467 -6.98775331334619e-14
4.264598842025894 5.615218223046081 -7.076386805858949e-14
4.246569282602718 5.815395998660695 -7.13142168099352e-14
-0.26929748327218134 6.010323492315684 9.644100872417716e-14
0.23029341865661213 6.021073291511775 5.807392096654768e-14
0.7300011634591712 6.020420085688262 1.8950068107751105e-14
1.2298257955006666 6.012131849386258 -1.2684266722939781e-14
1.729767341404395 6.000001056948065 -2.967620069277404e-14
2.2298258100417314 5.987870203060432 -3.8650898575255756e-14
2.7300011925369576 5.979581783749374 -4.5640241449955926e-14
3.230293462266692 5.978928277296822 -5.2424461075484475e-14
3.7307025748638507 5.9896776645503556 -6.184906969885476e-14

CELLS 90 270
2 0 8
2 8 9
2 9 10
2 10 11
2 11 12
2 12 13
2 13 14
2 14 15
2 15 16
2 16 2
2 1 17
2 17 18
2 18 19
2 19 20
2 20 21
2 21 22
2 22 23
2 23 24
2 24 25
2 25 3
2 2 26
2 26 27
2 27 28
2 28 29
2 29 30
2 30 31
2 31 32
2 32 33
2 33 34
2 34 3
2 2 35
2 35 36
2 36 37
2 37 38
2 38 39
2 39 40
2 40 41
2 41 42
2 42 43
2 43 4
2 3 44
2 44 45
2 45 46
2 46 47
2 47 48
2 48 49
2 49 50
2 50 51
2 51 52
2 52 5
2 4 53
2 53 54
2 54 55
2 55 56
2 56 57
2 57 58
2 58 59
2 59 60
2 60 61
2 61 5
2 4 62
2 62 63
2 63 64
2 64 65
2 65 66
2 66 67
2 67 68
2 68 69
2 69 70
2 70 6
2 5 71
2 71 72
2 72 73
2 73 74
2 74 75
2 75 76
2 76 77
2 77 78
2 78 79
2 79 7
2 6 80
2 80 81
2 81 82
2 82 83
2 83 84
2 84 85
2 85 86
2 86 87
2 87 88
2 88 7

CELL_TYPES 90
3
3
3
3
3
3
3
3
3
3
3
3
3
3
3
3
3
3
3
3
3
3
3
3
3
3
3
3
3
3
3
3
3
3
3
3
3
3
3
3
3
3
3
3
3
3
3
3
3
3
3
3
3
3
3
3
3
3
3
3
3
3
3
3
3
3
3
3
3
3
3
3
3
3
3
3
3
3
3
3
3
3
3
3
3
3
3
3
3
3

POINT_DATA 89
SCALARS MODE3_19.7959_Hz float 1
LOOKUP_TABLE default
0.0
0.0
0.00842895877809963
0.008428958902352856
0.02106569970441862
0.021065704286109887
0.029902806668902354
0.02990280434962054
0.0001462282334823463
0.0005473476866237185
0.001168353547044403
0.001970547906736685
0.0029152505168432374
0.003963845290340309
0.005077813092024696
0.006218766411933759
0.0073484860403609025
0.00014622783396988658
0.0005473473815682226
0.0011683533549960027
0.0019705478307199585
0.00291525054962212
0.003963845414911769
0.005077813281627815
0.006218766629930736
0.0073484862400344094
0.008571075181112836
0.008725453243587611
0.008671244302165516
0.008516699602084227
0.00843814629977435
0.008516698967225633
0.008671243250905862
0.008725452127001534
0.008571074430703311
0.00954353005921587
0.010779276795442492
0.012102485186295161
0.013479783305155556
0.014878188758173245
0.01626515674651195
0.01760862764069545
0.01887707339262975
0.020039542068053112
0.009543530058183902
0.01077927666680932
0.012102484974485603
0.013479783102751934
0.014878188706908527
0.016265157037895515
0.01760862851637113
0.018877075144551638
0.020039545038538092
0.02110758527557035
0.02116614355550101
0.02116049595874378
0.021120301493016327
0.021098905461682457
0.021120301864835923
0.021160496720647588
0.02116614485500447
0.021107587615908564
0.022034979980370288
0.023033904165733254
0.02404283870657604
0.025042903027371482
0.02601600273781094
0.026944862514024955
0.027813058052832434
0.02860504653685194
0.029306195081890085
0.02203498663195085
0.02303391316924055
0.02404285000739862
0.02504291623471192
0.02601601712520432
0.02694487701989406
0.02781307128105337
0.028605056757295605
0.029306200230894676
0.029919817960940315
0.029944250125026602
0.029954927159314925
0.029954934703888506
0.02995349227859837
0.02995493288150151
0.02995492410171848
0.029944246760073127
0.029919815096645035

