# vtk DataFile Version 2.0
mesh vtk view
ASCII
DATASET UNSTRUCTURED_GRID
POINTS 89 double
0.0 0.0 0.0
5.0 0.0 0.0
-0.2887590718703722 1.9883776634908181 3.025841951753003e-14
4.711240928972799 2.0116224633861677 -2.523633016839966e-14
-0.7220187401551184 3.9816233528338767 1.0957178216194916e-13
4.2779811202185725 4.0183773351655345 -8.013423571182934e-14
-1.025028805906062 5.979236327486923 1.7304495802332841e-13
3.974971290965853 6.020764528379707 -9.584186008047932e-14
-0.004876845644528927 0.19883726434071522 3.9395580315920413e-16
-0.018621570264193626 0.3976745702564998 1.4453314957825901e-15
-0.03990568483523283 0.5965119439904559 3.0463841394913374e-15
-0.06740139144577871 0.7953494117851043 5.0574822069175125e-15
-0.09978226618735005 0.9941869998827254 7.54337262224629e-15
-0.1357241455281799 1.1930247345271145 1.0948446622296595e-14
-0.1739061727286284 1.391862641961415 1.4778475596938905e-14
-0.21301196093750366 1.5907007484323195 1.9131403019514938e-14
-0.2517308297140786 1.7895390801902946 2.4626105162129157e-14
4.995123154253364 0.20116267616699396 -3.6385073632112094e-16
4.9813784287482745 0.40232533742751775 -1.3620138591045605e-15
4.960094312818565 0.6034879535445068 -2.902622110389868e-15
4.932598604685908 0.8046504942830587 -4.98203542067314e-15
4.900217728568169 1.0058129294121456 -7.502547900759632e-15
4.8642758483059145 1.2069752287077538 -1.048810689382129e-14
4.826093820946847 1.4081373619520516 -1.368715196047122e-14
4.786988033649335 1.609299298938999 -1.7296952952587755e-14
4.7482691671602915 1.8104610094759315 -2.108998735426793e-14
0.21104339959961332 2.0534881000253193 7.535218265865679e-14
0.7108897352119693 2.0768830361305692 1.334289075591232e-13
1.2107799582937298 2.068839968910095 1.6092756478217415e-13
1.710714085509527 2.0397280649219867 1.6340700083819606e-13
2.2106921268610895 2.000000080147224 1.4084281734757535e-13
2.710714085679715 1.9602720938339322 1.0472125707223179e-13
3.210779958631944 1.9311601853323865 7.04622354650438e-14
3.710889735718144 1.9231171109286032 3.370740407589233e-14
4.211043400273949 1.9465120376822953 -2.9630999748786045e-15
-0.3269755047555578 2.1877006833662582 3.707445689746273e-14
-0.3693473370095224 2.3870240082271232 4.451366905322904e-14
-0.4147176950789191 2.5863476527697684 5.249823367827825e-14
-0.4619418360193198 2.785671631701033 6.092674374925985e-14
-0.5098886213256423 2.9849959597401003 7.006849605749941e-14
-0.5574420516314835 3.1843206516204394 7.861598975849471e-14
-0.6035028252423253 3.3836457220917855 8.74909220614299e-14
-0.6469898839637194 3.582971185922106 9.517152658550995e-14
-0.6868419102323725 3.7822970578994823 1.0202799669585071e-13
4.673024501585878 2.212299484277426 -3.0030968406421083e-14
4.630652675164431 2.4129762126779464 -3.5587305165380185e-14
4.585282321509372 2.6136526304114938 -4.168701634433997e-14
4.538058181811802 2.814328719327629 -4.802883665066169e-14
4.490111392822643 3.0150044613043647 -5.438423504762207e-14
4.442557952153253 3.2156798382509044 -6.0263550149361e-14
4.396497159742025 3.416354832110424 -6.619583728980433e-14
4.3530100720257705 3.6170294248628276 -7.15833658772449e-14
4.31315800480793 3.8177035985274346 -7.630666101898752e-14
-0.222512658501199 4.041239581771812 5.5355984238340515e-14
0.2771031019017416 4.063680984712546 -1.515138882526206e-14
0.7768285993824793 4.058114714214683 -6.22113241168185e-14
1.276663875611293 4.033783431472445 -8.517155913232641e-14
1.7766089555956746 4.000000155174453 -9.473337959508277e-14
2.2766638476705183 3.9662168935526125 -9.522558376370811e-14
2.776828543503034 3.9418856550404526 -8.709475590310839e-14
3.277103018092096 3.9363194589507273 -7.947339198908076e-14
3.777487229771955 3.958760967580525 -7.561632594104931e-14
-0.7552555977509248 4.181382549998611 1.1791358674031077e-13
-0.7895086753671141 4.38114220089056 1.255647993623013e-13
-0.8241046445723567 4.580902310335247 1.3296980214760555e-13
-0.8583960417624729 4.780662883185957 1.4021068704686422e-13
-0.8917623944171726 4.980423924325294 1.4690910752910104e-13
-0.9236113376707371 5.18018543866675 1.5312564817524054e-13
-0.9533797008844599 5.379947431156215 1.5889646971708931e-13
-0.9805345448290523 5.5797099067734095 1.6426070013344752e-13
-1.0045741310409575 5.779472870533224 1.6938536181926145e-13
4.244744191718269 4.218618163670868 -8.295485203680562e-14
4.210491033585718 4.418858541493835 -8.504782948467236e-14
4.175894985760178 4.619098461783647 -8.69873877779412e-14
4.1416035233423845 4.819337917739524 -8.860248671489455e-14
4.108237130335341 5.019576902612544 -9.012679479966022e-14
4.076388183071595 5.219815409707485 -9.150772052071811e-14
4.0466198636395845 5.420053432384623 -9.31700441779492e-14
4.019465122701191 5.620290964061441 -9.43518240781193e-14
3.9954257101369572 5.82052799821426 -9.508562241324694e-14
-0.5257299776961066 6.013764656420912 1.2858801163223622e-13
-0.02627544179065444 6.0280977220156995 7.743189462206359e-14
0.47333488461324436 6.027226780917683 2.5266757477001476e-14
0.9731010606690529 6.016175799181677 -1.6912355630586374e-14
1.4730231218737937 6.000001409264087 -3.956826759036538e-14
1.9731010800566549 5.983826937413909 -5.1534531433674346e-14
2.4733349233833706 5.972775711665832 -6.08536552666079e-14
2.973724616356096 5.971904369729096 -6.98992814339793e-14
3.474270099818721 5.986236886067141 -8.246542626513968e-14

CELLS 90 270
2 0 8
2 8 9
2 9 10
2 10 11
2 11 12
2 12 13
2 13 14
2 14 15
2 15 16
2 16 2
2 1 17
2 17 18
2 18 19
2 19 20
2 20 21
2 21 22
2 22 23
2 23 24
2 24 25
2 25 3
2 2 26
2 26 27
2 27 28
2 28 29
2 29 30
2 30 31
2 31 32
2 32 33
2 33 34
2 34 3
2 2 35
2 35 36
2 36 37
2 37 38
2 38 39
2 39 40
2 40 41
2 41 42
2 42 43
2 43 4
2 3 44
2 44 45
2 45 46
2 46 47
2 47 48
2 48 49
2 49 50
2 50 51
2 51 52
2 52 5
2 4 53
2 53 54
2 54 55
2 55 56
2 56 57
2 57 58
2 58 59
2 59 60
2 60 61
2 61 5
2 4 62
2 62 63
2 63 64
2 64 65
2 65 66
2 66 67
2 67 68
2 68 69
2 69 70
2 70 6
2 5 71
2 71 72
2 72 73
2 73 74
2 74 75
2 75 76
2 76 77
2 77 78
2 78 79
2 79 7
2 6 80
2 80 81
2 81 82
2 82 83
2 83 84
2 84 85
2 85 86
2 86 87
2 87 88
2 88 7

CELL_TYPES 90
3
3
3
3
3
3
3
3
3
3
3
3
3
3
3
3
3
3
3
3
3
3
3
3
3
3
3
3
3
3
3
3
3
3
3
3
3
3
3
3
3
3
3
3
3
3
3
3
3
3
3
3
3
3
3
3
3
3
3
3
3
3
3
3
3
3
3
3
3
3
3
3
3
3
3
3
3
3
3
3
3
3
3
3
3
3
3
3
3
3

POINT_DATA 89
SCALARS MODE3_19.7959_Hz float 1
LOOKUP_TABLE default
0.0
0.0
0.00842895877809963
0.008428958902352856
0.02106569970441862
0.021065704286109887
0.029902806668902354
0.02990280434962054
0.0001462282334823463
0.0005473476866237185
0.001168353547044403
0.001970547906736685
0.0029152505168432374
0.003963845290340309
0.005077813092024696
0.006218766411933759
0.0073484860403609025
0.00014622783396988658
0.0005473473815682226
0.0011683533549960027
0.0019705478307199585
0.00291525054962212
0.003963845414911769
0.005077813281627815
0.006218766629930736
0.0073484862400344094
0.008571075181112836
0.008725453243587611
0.008671244302165516
0.008516699602084227
0.00843814629977435
0.008516698967225633
0.008671243250905862
0.008725452127001534
0.008571074430703311
0.00954353005921587
0.010779276795442492
0.012102485186295161
0.013479783305155556
0.014878188758173245
0.01626515674651195
0.01760862764069545
0.01887707339262975
0.020039542068053112
0.009543530058183902
0.01077927666680932
0.012102484974485603
0.013479783102751934
0.014878188706908527
0.016265157037895515
0.01760862851637113
0.018877075144551638
0.020039545038538092
0.02110758527557035
0.02116614355550101
0.02116049595874378
0.021120301493016327
0.021098905461682457
0.021120301864835923
0.021160496720647588
0.02116614485500447
0.021107587615908564
0.022034979980370288
0.023033904165733254
0.02404283870657604
0.025042903027371482
0.02601600273781094
0.026944862514024955
0.027813058052832434
0.02860504653685194
0.029306195081890085
0.02203498663195085
0.02303391316924055
0.02404285000739862
0.02504291623471192
0.02601601712520432
0.02694487701989406
0.02781307128105337
0.028605056757295605
0.029306200230894676
0.029919817960940315
0.029944250125026602
0.029954927159314925
0.029954934703888506
0.02995349227859837
0.02995493288150151
0.02995492410171848
0.029944246760073127
0.029919815096645035

