# vtk DataFile Version 2.0
mesh vtk view
ASCII
DATASET UNSTRUCTURED_GRID
POINTS 89 double
0.0 0.0 0.0
5.0 0.0 0.0
-0.1443795359351861 1.994188831745409 1.5129209758765014e-14
4.8556204644864 2.005811231693084 -1.261816508419983e-14
-0.3610093700775592 3.9908116764169383 5.478589108097458e-14
4.638990560109286 4.009188667582767 -4.006711785591467e-14
-0.512514402953031 5.989618163743462 8.652247901166421e-14
4.487485645482927 6.010382264189853 -4.792093004023966e-14
-0.0024384228222644635 0.19941863217017178 1.9697790157960207e-16
-0.009310785132096813 0.3988372851278068 7.226657478912951e-16
-0.019952842417616416 0.598255971994493 1.5231920697456687e-15
-0.033700695722889355 0.7976747058915253 2.5287411034587562e-15
-0.04989113309367502 0.9970934999400548 3.771686311123145e-15
-0.06786207276408995 1.1965123672625024 5.474223311148298e-15
-0.0869530863643142 1.3959313209799165 7.389237798469453e-15
-0.10650598046875183 1.595350374215632 9.565701509757469e-15
-0.1258654148570393 1.7947695400948833 1.2313052581064578e-14
4.997561577126682 0.20058133808331113 -1.8192536816056047e-16
4.990689214374137 0.4011626687133158 -6.810069295522803e-16
4.980047156409283 0.6017439767715185 -1.451311055194934e-15
4.966299302342954 0.8023252471405025 -2.49101771033657e-15
4.9501088642840845 1.002906464704765 -3.751273950379816e-15
4.932137924152958 1.203487614352822 -5.244053446910645e-15
4.913046910473423 1.4040686809752347 -6.84357598023561e-15
4.8934940168246674 1.604649649468972 -8.648476476293877e-15
4.874134583580146 1.8052305047377017 -1.0544993677133965e-14
0.35552169979960385 2.0267440500126597 3.7676091329328394e-14
0.8554448676051907 2.0384415180652846 6.67144537795616e-14
1.355389979145341 2.0344199844550475 8.046378239108708e-14
1.8553570427525177 2.019864032460993 8.170350041909803e-14
2.3553460634286445 2.000000040073612 7.042140867378767e-14
2.855357042838338 1.980136046916966 5.2360628536115896e-14
3.3553899793148316 1.9655800926661933 3.52311177325219e-14
3.855444867858312 1.9615585554643016 1.6853702037946164e-14
4.3555217001365945 1.9732560188411477 -1.4815499874393023e-15
-0.1634877523777789 2.193850341683129 1.8537228448731364e-14
-0.1846736685047612 2.393512004113562 2.225683452661452e-14
-0.20735884753945955 2.5931738263848843 2.6249116839139125e-14
-0.2309709180096599 2.792835815850516 3.0463371874629923e-14
-0.25494431066282114 2.99249797987005 3.5034248028749703e-14
-0.27872102581574176 3.1921603258102196 3.930799487924736e-14
-0.3017514126211627 3.3918228610458927 4.374546103071495e-14
-0.3234949419818597 3.591485592961053 4.7585763292754973e-14
-0.34342095511618626 3.791148528949741 5.1013998347925356e-14
4.836512250792938 2.206149742138713 -1.5015484203210542e-14
4.815326337582215 2.406488106338973 -1.7793652582690092e-14
4.792641160754686 2.606826315205747 -2.0843508172169986e-14
4.769029090905901 2.8071643596638145 -2.4014418325330844e-14
4.745055696411321 3.0075022306521824 -2.7192117523811034e-14
4.7212789760766265 3.2078399191254525 -3.01317750746805e-14
4.698248579871012 3.408177416055212 -3.3097918644902166e-14
4.676505036012885 3.608514712431414 -3.579168293862245e-14
4.656579002403965 3.808851799263717 -3.815333050949376e-14
0.1387436707491977 4.020619790885906 2.7677992119170258e-14
0.6385515509500768 4.031840492356273 -7.57569441263103e-15
1.1384142996897157 4.029057357107342 -3.110566205840925e-14
1.6383319378034005 4.0168917157362225 -4.258577956616321e-14
2.138304477795937 4.000000077587226 -4.7366689797541386e-14
2.6383319238337393 3.9831084467763063 -4.761279188185406e-14
3.138414271750377 3.9709428275202265 -4.3547377951554196e-14
3.6385515090452882 3.9681597294753637 -3.973669599454038e-14
4.138743614885597 3.9793804837902624 -3.7808162970524655e-14
-0.3776277988754624 4.190691274999306 5.895679337015538e-14
-0.39475433768355705 4.39057110044528 6.278239968115065e-14
-0.41205232228617833 4.5904511551676235 6.648490107380278e-14
-0.42919802088123643 4.790331441592978 7.010534352343211e-14
-0.4458811972085863 4.990211962162647 7.345455376455052e-14
-0.46180566883536855 5.190092719333375 7.656282408762027e-14
-0.47668985044222995 5.389973715578107 7.944823485854466e-14
-0.49026727241452617 5.589854953386705 8.213035006672376e-14
-0.5022870655204787 5.7897364352666125 8.469268090963073e-14
4.622372095859134 4.209309081835434 -4.147742601840281e-14
4.605245516792859 4.409429270746918 -4.252391474233618e-14
4.5879474928800885 4.609549230891823 -4.34936938889706e-14
4.570801761671192 4.809668958869762 -4.430124335744727e-14
4.55411856516767 5.009788451306272 -4.506339739983011e-14
4.5381940915357974 5.209907704853743 -4.5753860260359055e-14
4.523309931819792 5.410026716192311 -4.65850220889746e-14
4.509732561350596 5.61014548203072 -4.717591203905965e-14
4.497712855068478 5.81026399910713 -4.754281120662347e-14
-0.012864988848256098 6.006882328210456 6.429400581611811e-14
0.4868622791038788 6.01404886100785 3.8715947311031796e-14
0.9866674423050982 6.013613390458842 1.2633378738500738e-14
1.4865505303322806 6.008087899590839 -8.456177815293187e-15
1.9865115609349964 6.000000704632043 -1.978413379518269e-14
2.4865505400268075 5.991913468706954 -2.5767265716837173e-14
2.986667461690545 5.986387855832916 -3.042682763330395e-14
3.486862308177288 5.985952184864548 -3.494964071698965e-14
3.9871350499089804 5.993118443033571 -4.123271313256984e-14

CELLS 90 270
2 0 8
2 8 9
2 9 10
2 10 11
2 11 12
2 12 13
2 13 14
2 14 15
2 15 16
2 16 2
2 1 17
2 17 18
2 18 19
2 19 20
2 20 21
2 21 22
2 22 23
2 23 24
2 24 25
2 25 3
2 2 26
2 26 27
2 27 28
2 28 29
2 29 30
2 30 31
2 31 32
2 32 33
2 33 34
2 34 3
2 2 35
2 35 36
2 36 37
2 37 38
2 38 39
2 39 40
2 40 41
2 41 42
2 42 43
2 43 4
2 3 44
2 44 45
2 45 46
2 46 47
2 47 48
2 48 49
2 49 50
2 50 51
2 51 52
2 52 5
2 4 53
2 53 54
2 54 55
2 55 56
2 56 57
2 57 58
2 58 59
2 59 60
2 60 61
2 61 5
2 4 62
2 62 63
2 63 64
2 64 65
2 65 66
2 66 67
2 67 68
2 68 69
2 69 70
2 70 6
2 5 71
2 71 72
2 72 73
2 73 74
2 74 75
2 75 76
2 76 77
2 77 78
2 78 79
2 79 7
2 6 80
2 80 81
2 81 82
2 82 83
2 83 84
2 84 85
2 85 86
2 86 87
2 87 88
2 88 7

CELL_TYPES 90
3
3
3
3
3
3
3
3
3
3
3
3
3
3
3
3
3
3
3
3
3
3
3
3
3
3
3
3
3
3
3
3
3
3
3
3
3
3
3
3
3
3
3
3
3
3
3
3
3
3
3
3
3
3
3
3
3
3
3
3
3
3
3
3
3
3
3
3
3
3
3
3
3
3
3
3
3
3
3
3
3
3
3
3
3
3
3
3
3
3

POINT_DATA 89
SCALARS MODE3_19.7959_Hz float 1
LOOKUP_TABLE default
0.0
0.0
0.00842895877809963
0.008428958902352856
0.02106569970441862
0.021065704286109887
0.029902806668902354
0.02990280434962054
0.0001462282334823463
0.0005473476866237185
0.001168353547044403
0.001970547906736685
0.0029152505168432374
0.003963845290340309
0.005077813092024696
0.006218766411933759
0.0073484860403609025
0.00014622783396988658
0.0005473473815682226
0.0011683533549960027
0.0019705478307199585
0.00291525054962212
0.003963845414911769
0.005077813281627815
0.006218766629930736
0.0073484862400344094
0.008571075181112836
0.008725453243587611
0.008671244302165516
0.008516699602084227
0.00843814629977435
0.008516698967225633
0.008671243250905862
0.008725452127001534
0.008571074430703311
0.00954353005921587
0.010779276795442492
0.012102485186295161
0.013479783305155556
0.014878188758173245
0.01626515674651195
0.01760862764069545
0.01887707339262975
0.020039542068053112
0.009543530058183902
0.01077927666680932
0.012102484974485603
0.013479783102751934
0.014878188706908527
0.016265157037895515
0.01760862851637113
0.018877075144551638
0.020039545038538092
0.02110758527557035
0.02116614355550101
0.02116049595874378
0.021120301493016327
0.021098905461682457
0.021120301864835923
0.021160496720647588
0.02116614485500447
0.021107587615908564
0.022034979980370288
0.023033904165733254
0.02404283870657604
0.025042903027371482
0.02601600273781094
0.026944862514024955
0.027813058052832434
0.02860504653685194
0.029306195081890085
0.02203498663195085
0.02303391316924055
0.02404285000739862
0.02504291623471192
0.02601601712520432
0.02694487701989406
0.02781307128105337
0.028605056757295605
0.029306200230894676
0.029919817960940315
0.029944250125026602
0.029954927159314925
0.029954934703888506
0.02995349227859837
0.02995493288150151
0.02995492410171848
0.029944246760073127
0.029919815096645035

