# vtk DataFile Version 2.0
mesh vtk view
ASCII
DATASET UNSTRUCTURED_GRID
POINTS 89 double
0.0 0.0 0.0
5.0 0.0 0.0
2.0837722639967735e-14 2.0000000000000013 0.19188600447688303
5.00000000000002 2.0 -0.19186770753512408
3.570883210411844e-14 4.000000000000002 0.47363236941956016
5.000000000000035 4.0 -0.4736375102294074
4.449470384461224e-14 6.000000000000002 0.6553726699967798
5.000000000000045 6.0 -0.6554565798836107
4.454368078503116e-16 0.19999999999962842 0.003135597757189425
1.662383834189436e-15 0.399999999999114 0.011999346235377024
3.4774846682403584e-15 0.5999999999985304 0.025776978460648917
5.7332659595391105e-15 0.7999999999979467 0.043655144462877625
8.28052112640159e-15 0.9999999999973848 0.06482232786276584
1.0997990545019583e-14 1.1999999999978908 0.08847004012931985
1.3730369464008674e-14 1.399999999998419 0.11379423758587497
1.6352050630622193e-14 1.5999999999989458 0.13999690645410004
1.875876845822362e-14 1.7999999999994731 0.1662877615273399
5.0 0.1999999999996283 -0.003135136330700573
5.000000000000002 0.3999999999991138 -0.011997641612148897
5.0000000000000036 0.59999999999853 -0.02577345087277477
5.000000000000005 0.7999999999979462 -0.04364940324513815
5.000000000000008 0.9999999999973841 -0.06481415843332923
5.000000000000011 1.19999999999789 -0.08845939082408913
5.000000000000013 1.399999999998418 -0.11378120633169295
5.000000000000016 1.599999999998945 -0.1399817272770492
5.000000000000018 1.799999999999472 -0.166270790902501
0.4999999999996153 1.9999999999999978 0.15403616340788057
0.999999999998433 1.9999999999999967 0.11619853871694932
1.4999999999969729 1.9999999999999973 0.07795471413926905
1.999999999995529 1.9999999999999991 0.03919341275088326
2.49999999999622 2.0000000000000013 9.301803514410432e-06
2.999999999996981 2.0000000000000036 -0.039174870373134614
3.49999999999774 2.0000000000000053 -0.0779363308753797
3.9999999999985003 2.0000000000000053 -0.11618033888002094
4.49999999999926 2.0000000000000036 -0.1540180491309057
2.27252592089107e-14 2.2000000000000015 0.21817291978424905
2.4634195639814883e-14 2.4000000000000012 0.24658779569187247
2.6434961685594387e-14 2.6000000000000014 0.2764564056601261
2.8214023293805137e-14 2.800000000000001 0.30712125447957683
2.986299548674646e-14 3.0000000000000013 0.33794358743927677
3.1380730484296315e-14 3.2000000000000015 0.36830545378021284
3.2743944553332444e-14 3.4000000000000017 0.3976117812271612
3.392538246479771e-14 3.600000000000002 0.42529241980098226
3.4932729139815356e-14 3.8000000000000016 0.45080411466180687
5.000000000000022 2.2 -0.21815385377265295
5.000000000000024 2.4 -0.2465685853811167
5.000000000000026 2.6 -0.2764377262506898
5.0000000000000275 2.8 -0.307103817043496
5.000000000000028 3.0 -0.3379281243985868
5.00000000000003 3.2 -0.3682927044699338
5.000000000000031 3.4 -0.39760247759212874
5.000000000000033 3.6 -0.425287272276298
5.000000000000034 3.8 -0.45080379828618905
0.49999999999963013 4.000000000000001 0.3920137684878523
0.9999999999984478 4.000000000000002 0.3026045807581194
1.4999999999969875 4.0000000000000036 0.20626434063471852
1.9999999999955436 4.000000000000004 0.10464984680833034
2.499999999996234 4.000000000000006 -3.890519565463282e-05
2.9999999999969953 4.000000000000006 -0.10472455866255462
3.4999999999977542 4.000000000000006 -0.20632985840751128
3.999999999998515 4.000000000000004 -0.30265510534286844
4.499999999999274 4.000000000000003 -0.3920439679393421
3.645956418819122e-14 4.200000000000002 0.4951266827060571
3.7291079084485835e-14 4.400000000000002 0.5167004741496795
3.820436670322005e-14 4.600000000000001 0.5379831101097952
3.914634975097572e-14 4.800000000000002 0.5586389394339332
4.018052213239574e-14 5.000000000000002 0.5783687277285972
4.1190572057303036e-14 5.200000000000002 0.5969110499186799
4.216160552926998e-14 5.400000000000002 0.6140436208631415
4.307409299797723e-14 5.600000000000001 0.6295845463532878
4.383017451532669e-14 5.800000000000002 0.6433934794684614
5.000000000000036 4.2 -0.49513785232608853
5.000000000000037 4.4 -0.5167182091712282
5.000000000000038 4.6 -0.5380079114915644
5.000000000000039 4.8 -0.5586712652822527
5.00000000000004 5.0 -0.5784089865553035
5.000000000000041 5.2 -0.5969595944075112
5.000000000000043 5.4 -0.6141007421721739
5.0000000000000435 5.6 -0.6296504689771837
5.000000000000044 5.8 -0.6434683566801357
0.4999999999996389 6.000000000000001 0.5457808271662208
0.9999999999984567 6.0 0.423179915487592
1.4999999999969968 6.000000000000001 0.28930004345268473
1.999999999995553 6.000000000000002 0.1469855613052632
2.499999999996244 6.000000000000003 -0.00015776662825723976
2.9999999999970055 6.0000000000000036 -0.14729104052049868
3.4999999999977645 6.0000000000000036 -0.2895757733692585
3.999999999998525 6.0000000000000036 -0.42340741291269884
4.499999999999285 6.000000000000002 -0.5459435420670438

CELLS 90 270
2 0 8
2 8 9
2 9 10
2 10 11
2 11 12
2 12 13
2 13 14
2 14 15
2 15 16
2 16 2
2 1 17
2 17 18
2 18 19
2 19 20
2 20 21
2 21 22
2 22 23
2 23 24
2 24 25
2 25 3
2 2 26
2 26 27
2 27 28
2 28 29
2 29 30
2 30 31
2 31 32
2 32 33
2 33 34
2 34 3
2 2 35
2 35 36
2 36 37
2 37 38
2 38 39
2 39 40
2 40 41
2 41 42
2 42 43
2 43 4
2 3 44
2 44 45
2 45 46
2 46 47
2 47 48
2 48 49
2 49 50
2 50 51
2 51 52
2 52 5
2 4 53
2 53 54
2 54 55
2 55 56
2 56 57
2 57 58
2 58 59
2 59 60
2 60 61
2 61 5
2 4 62
2 62 63
2 63 64
2 64 65
2 65 66
2 66 67
2 67 68
2 68 69
2 69 70
2 70 6
2 5 71
2 71 72
2 72 73
2 73 74
2 74 75
2 75 76
2 76 77
2 77 78
2 78 79
2 79 7
2 6 80
2 80 81
2 81 82
2 82 83
2 83 84
2 84 85
2 85 86
2 86 87
2 87 88
2 88 7

CELL_TYPES 90
3
3
3
3
3
3
3
3
3
3
3
3
3
3
3
3
3
3
3
3
3
3
3
3
3
3
3
3
3
3
3
3
3
3
3
3
3
3
3
3
3
3
3
3
3
3
3
3
3
3
3
3
3
3
3
3
3
3
3
3
3
3
3
3
3
3
3
3
3
3
3
3
3
3
3
3
3
3
3
3
3
3
3
3
3
3
3
3
3
3

POINT_DATA 89
SCALARS MODE2_15.7142_Hz float 1
LOOKUP_TABLE default
0.0
0.0
0.011193350261151508
0.011192282939548904
0.02762855488280767
0.027628854763382095
0.038230072416478814
0.03823496715987729
0.0001829098691693831
0.0006999618637303263
0.0015036570768711865
0.002546550093667861
0.00378130245866134
0.00516075234087699
0.006637997192509372
0.0081664862098225
0.009700119422428159
0.00018288295262420005
0.0006998624273753522
0.0015034513009118612
0.002546215189299725
0.0037808259086108712
0.0051601311314051984
0.0066372370360154205
0.008165600757827868
0.009699129469312557
0.008985442865459698
0.006778248091822043
0.004547358324790694
0.00228628241046819
5.426052050072751e-07
0.0022852007717661855
0.004546285967730481
0.006777186434667887
0.00898438619930283
0.012726753654081192
0.014384288082025892
0.016126623663507353
0.017915406511308647
0.01971337593395781
0.021484484803845745
0.023194020571584397
0.024808724488390627
0.026296906688605397
0.01272564147007142
0.014383167480565139
0.016125534031290235
0.017914389327537264
0.019712473923250894
0.021483741094079467
0.02319347785954084
0.024808424216117377
0.026296888233361022
0.022867469828458047
0.017651933877556963
0.012032086537025245
0.006104574397152602
2.2694697465202474e-06
0.0061089325886490185
0.012035908407104822
0.017654881145000655
0.022869231463128286
0.028882389824519992
0.030140860992064627
0.03138234808973805
0.03258727146697943
0.03373817578416816
0.03481981124525632
0.03581921121701658
0.03672576520394178
0.037531286302326904
0.028883041385688493
0.030141895534988306
0.031383794837007914
0.032589157141464736
0.03374052421572603
0.03482264300710482
0.03582254329337681
0.03672961069033571
0.03753565413967457
0.03183721491802954
0.024685495070109528
0.016875835868073272
0.008574157742807018
9.20305331500565e-06
0.008591977363695755
0.016891920113206744
0.024698765753240762
0.03184670662057755

