# vtk DataFile Version 2.0
mesh vtk view
ASCII
DATASET UNSTRUCTURED_GRID
POINTS 89 double
0.0 0.0 0.0
5.0 0.0 0.0
-2.0837722639967735e-14 1.999999999999999 -0.19188600447688303
4.99999999999998 2.0 0.19186770753512408
-3.570883210411844e-14 3.9999999999999982 -0.47363236941956016
4.999999999999965 4.0 0.4736375102294074
-4.449470384461224e-14 5.999999999999998 -0.6553726699967798
4.999999999999955 6.0 0.6554565798836107
-4.454368078503116e-16 0.1999999999996282 -0.003135597757189425
-1.662383834189436e-15 0.39999999999911356 -0.011999346235377024
-3.4774846682403584e-15 0.5999999999985297 -0.025776978460648917
-5.7332659595391105e-15 0.7999999999979458 -0.043655144462877625
-8.28052112640159e-15 0.9999999999973836 -0.06482232786276584
-1.0997990545019583e-14 1.1999999999978894 -0.08847004012931985
-1.3730369464008674e-14 1.3999999999984172 -0.11379423758587497
-1.6352050630622193e-14 1.599999999998944 -0.13999690645410004
-1.875876845822362e-14 1.799999999999471 -0.1662877615273399
5.0 0.1999999999996283 0.003135136330700573
4.999999999999998 0.3999999999991138 0.011997641612148897
4.9999999999999964 0.59999999999853 0.02577345087277477
4.999999999999995 0.7999999999979462 0.04364940324513815
4.999999999999992 0.9999999999973843 0.06481415843332923
4.999999999999989 1.19999999999789 0.08845939082408913
4.999999999999987 1.399999999998418 0.11378120633169295
4.999999999999984 1.599999999998945 0.1399817272770492
4.999999999999982 1.799999999999472 0.166270790902501
0.49999999999957345 2.000000000000002 -0.15403616340788057
0.9999999999983911 2.000000000000003 -0.11619853871694932
1.4999999999969311 2.0000000000000027 -0.07795471413926905
1.9999999999954872 2.000000000000001 -0.03919341275088326
2.499999999996178 1.9999999999999987 -9.301803514410432e-06
2.9999999999969393 1.9999999999999964 0.039174870373134614
3.4999999999976983 1.999999999999995 0.0779363308753797
3.9999999999984595 1.9999999999999947 0.11618033888002094
4.499999999999219 1.9999999999999964 0.1540180491309057
-2.27252592089107e-14 2.199999999999999 -0.21817291978424905
-2.4634195639814883e-14 2.3999999999999986 -0.24658779569187247
-2.6434961685594387e-14 2.5999999999999988 -0.2764564056601261
-2.8214023293805137e-14 2.7999999999999985 -0.30712125447957683
-2.986299548674646e-14 2.9999999999999987 -0.33794358743927677
-3.1380730484296315e-14 3.199999999999999 -0.36830545378021284
-3.2743944553332444e-14 3.399999999999998 -0.3976117812271612
-3.392538246479771e-14 3.5999999999999983 -0.42529241980098226
-3.4932729139815356e-14 3.799999999999998 -0.45080411466180687
4.999999999999978 2.2 0.21815385377265295
4.999999999999976 2.4 0.2465685853811167
4.999999999999974 2.6 0.2764377262506898
4.9999999999999725 2.8 0.307103817043496
4.999999999999972 3.0 0.3379281243985868
4.99999999999997 3.2 0.3682927044699338
4.999999999999969 3.4 0.39760247759212874
4.999999999999967 3.6 0.425287272276298
4.999999999999966 3.8 0.45080379828618905
0.49999999999955863 3.999999999999999 -0.3920137684878523
0.9999999999983763 3.9999999999999982 -0.3026045807581194
1.4999999999969165 3.999999999999997 -0.20626434063471852
1.9999999999954725 3.999999999999995 -0.10464984680833034
2.499999999996164 3.9999999999999942 3.890519565463282e-05
2.999999999996925 3.9999999999999933 0.10472455866255462
3.499999999997684 3.999999999999994 0.20632985840751128
3.999999999998445 3.999999999999995 0.30265510534286844
4.499999999999205 3.9999999999999973 0.3920439679393421
-3.645956418819122e-14 4.199999999999998 -0.4951266827060571
-3.7291079084485835e-14 4.399999999999999 -0.5167004741496795
-3.820436670322005e-14 4.599999999999998 -0.5379831101097952
-3.914634975097572e-14 4.799999999999998 -0.5586389394339332
-4.018052213239574e-14 4.999999999999998 -0.5783687277285972
-4.1190572057303036e-14 5.199999999999998 -0.5969110499186799
-4.216160552926998e-14 5.399999999999999 -0.6140436208631415
-4.307409299797723e-14 5.599999999999998 -0.6295845463532878
-4.383017451532669e-14 5.799999999999998 -0.6433934794684614
4.999999999999964 4.2 0.49513785232608853
4.999999999999963 4.4 0.5167182091712282
4.999999999999962 4.6 0.5380079114915644
4.999999999999961 4.8 0.5586712652822527
4.99999999999996 5.0 0.5784089865553035
4.999999999999959 5.2 0.5969595944075112
4.999999999999957 5.4 0.6141007421721739
4.9999999999999565 5.6 0.6296504689771837
4.999999999999956 5.8 0.6434683566801357
0.49999999999954986 5.999999999999999 -0.5457808271662208
0.9999999999983674 6.0 -0.423179915487592
1.4999999999969071 5.999999999999999 -0.28930004345268473
1.9999999999954632 5.999999999999998 -0.1469855613052632
2.499999999996154 5.999999999999997 0.00015776662825723976
2.999999999996915 5.9999999999999964 0.14729104052049868
3.499999999997674 5.9999999999999964 0.2895757733692585
3.9999999999984346 5.9999999999999964 0.42340741291269884
4.499999999999194 5.999999999999998 0.5459435420670438

CELLS 90 270
2 0 8
2 8 9
2 9 10
2 10 11
2 11 12
2 12 13
2 13 14
2 14 15
2 15 16
2 16 2
2 1 17
2 17 18
2 18 19
2 19 20
2 20 21
2 21 22
2 22 23
2 23 24
2 24 25
2 25 3
2 2 26
2 26 27
2 27 28
2 28 29
2 29 30
2 30 31
2 31 32
2 32 33
2 33 34
2 34 3
2 2 35
2 35 36
2 36 37
2 37 38
2 38 39
2 39 40
2 40 41
2 41 42
2 42 43
2 43 4
2 3 44
2 44 45
2 45 46
2 46 47
2 47 48
2 48 49
2 49 50
2 50 51
2 51 52
2 52 5
2 4 53
2 53 54
2 54 55
2 55 56
2 56 57
2 57 58
2 58 59
2 59 60
2 60 61
2 61 5
2 4 62
2 62 63
2 63 64
2 64 65
2 65 66
2 66 67
2 67 68
2 68 69
2 69 70
2 70 6
2 5 71
2 71 72
2 72 73
2 73 74
2 74 75
2 75 76
2 76 77
2 77 78
2 78 79
2 79 7
2 6 80
2 80 81
2 81 82
2 82 83
2 83 84
2 84 85
2 85 86
2 86 87
2 87 88
2 88 7

CELL_TYPES 90
3
3
3
3
3
3
3
3
3
3
3
3
3
3
3
3
3
3
3
3
3
3
3
3
3
3
3
3
3
3
3
3
3
3
3
3
3
3
3
3
3
3
3
3
3
3
3
3
3
3
3
3
3
3
3
3
3
3
3
3
3
3
3
3
3
3
3
3
3
3
3
3
3
3
3
3
3
3
3
3
3
3
3
3
3
3
3
3
3
3

POINT_DATA 89
SCALARS MODE2_15.7142_Hz float 1
LOOKUP_TABLE default
0.0
0.0
0.011193350261151508
0.011192282939548904
0.02762855488280767
0.027628854763382095
0.038230072416478814
0.03823496715987729
0.0001829098691693831
0.0006999618637303263
0.0015036570768711865
0.002546550093667861
0.00378130245866134
0.00516075234087699
0.006637997192509372
0.0081664862098225
0.009700119422428159
0.00018288295262420005
0.0006998624273753522
0.0015034513009118612
0.002546215189299725
0.0037808259086108712
0.0051601311314051984
0.0066372370360154205
0.008165600757827868
0.009699129469312557
0.008985442865459698
0.006778248091822043
0.004547358324790694
0.00228628241046819
5.426052050072751e-07
0.0022852007717661855
0.004546285967730481
0.006777186434667887
0.00898438619930283
0.012726753654081192
0.014384288082025892
0.016126623663507353
0.017915406511308647
0.01971337593395781
0.021484484803845745
0.023194020571584397
0.024808724488390627
0.026296906688605397
0.01272564147007142
0.014383167480565139
0.016125534031290235
0.017914389327537264
0.019712473923250894
0.021483741094079467
0.02319347785954084
0.024808424216117377
0.026296888233361022
0.022867469828458047
0.017651933877556963
0.012032086537025245
0.006104574397152602
2.2694697465202474e-06
0.0061089325886490185
0.012035908407104822
0.017654881145000655
0.022869231463128286
0.028882389824519992
0.030140860992064627
0.03138234808973805
0.03258727146697943
0.03373817578416816
0.03481981124525632
0.03581921121701658
0.03672576520394178
0.037531286302326904
0.028883041385688493
0.030141895534988306
0.031383794837007914
0.032589157141464736
0.03374052421572603
0.03482264300710482
0.03582254329337681
0.03672961069033571
0.03753565413967457
0.03183721491802954
0.024685495070109528
0.016875835868073272
0.008574157742807018
9.20305331500565e-06
0.008591977363695755
0.016891920113206744
0.024698765753240762
0.03184670662057755

