# vtk DataFile Version 2.0
mesh vtk view
ASCII
DATASET UNSTRUCTURED_GRID
POINTS 89 double
0.0 0.0 0.0
5.0 0.0 0.0
0.1443795359351861 2.0058111682545907 -1.5129209758765014e-14
5.1443795355136 1.9941887683069162 1.261816508419983e-14
0.3610093700775592 4.009188323583062 -5.478589108097458e-14
5.361009439890714 3.9908113324172327 4.006711785591467e-14
0.512514402953031 6.010381836256538 -8.652247901166421e-14
5.512514354517073 5.989617735810147 4.792093004023966e-14
0.0024384228222644635 0.20058136782908484 -1.9697790157960207e-16
0.009310785132096813 0.40116271487042077 -7.226657478912951e-16
0.019952842417616416 0.6017440280025671 -1.5231920697456687e-15
0.033700695722889355 0.8023252941043671 -2.5287411034587562e-15
0.04989113309367502 1.0029065000547137 -3.771686311123145e-15
0.06786207276408995 1.2034876327332777 -5.474223311148298e-15
0.0869530863643142 1.4040686790169197 -7.389237798469453e-15
0.10650598046875183 1.6046496257822578 -9.565701509757469e-15
0.1258654148570393 1.8052304599040607 -1.2313052581064578e-14
5.002438422873318 0.19941866191594548 1.8192536816056047e-16
5.009310785625863 0.3988373312849118 6.810069295522803e-16
5.019952843590717 0.5982560232255416 1.451311055194934e-15
5.033700697657046 0.79767475285539 2.49101771033657e-15
5.0498911357159155 0.9970935352900036 3.751273950379816e-15
5.067862075847042 1.1965123856429583 5.244053446910645e-15
5.086953089526577 1.3959313190216014 6.84357598023561e-15
5.1065059831753326 1.595350350528918 8.648476476293877e-15
5.125865416419854 1.7947694952612423 1.0544993677133965e-14
0.6444783001995849 1.9732559499873403 -3.7676091329328394e-14
1.1445551323916334 1.9615584819347154 -6.67144537795616e-14
1.644610020848563 1.9655800155449525 -8.046378239108708e-14
2.1446429572384984 1.9801359675390067 -8.170350041909803e-14
2.6446539365637536 1.999999959926388 -7.042140867378767e-14
3.1446429571555825 2.019863953083034 -5.2360628536115896e-14
3.6446100206806067 2.0344199073338065 -3.52311177325219e-14
4.144555132138648 2.0384414445356986 -1.6853702037946164e-14
4.644478299861885 2.0267439811588526 1.4815499874393023e-15
0.1634877523777789 2.206149658316871 -1.8537228448731364e-14
0.1846736685047612 2.406487995886438 -2.225683452661452e-14
0.20735884753945955 2.606826173615116 -2.6249116839139125e-14
0.2309709180096599 2.8071641841494834 -3.0463371874629923e-14
0.25494431066282114 3.00750202012995 -3.5034248028749703e-14
0.27872102581574176 3.2078396741897808 -3.930799487924736e-14
0.3017514126211627 3.408177138954107 -4.374546103071495e-14
0.3234949419818597 3.608514407038947 -4.7585763292754973e-14
0.34342095511618626 3.8088514710502586 -5.1013998347925356e-14
5.163487749207062 2.1938502578612873 1.5015484203210542e-14
5.184673662417785 2.3935118936610267 1.7793652582690092e-14
5.207358839245314 2.593173684794253 2.0843508172169986e-14
5.230970909094099 2.792835640336185 2.4014418325330844e-14
5.254944303588679 2.9924977693478176 2.7192117523811034e-14
5.2787210239233735 3.192160080874548 3.01317750746805e-14
5.301751420128988 3.391822583944788 3.3097918644902166e-14
5.323494963987115 3.5914852875685863 3.579168293862245e-14
5.343420997596035 3.7911482007362824 3.815333050949376e-14
0.8612563292499911 3.979380209114094 -2.7677992119170258e-14
1.3614484490467473 3.968159507643727 7.57569441263103e-15
1.8615857003041882 3.9709426428926586 3.110566205840925e-14
2.3616680621876154 3.9831082842637775 4.258577956616321e-14
2.8616955221964613 3.9999999224127736 4.7366689797541386e-14
3.361668076160181 4.016891553223694 4.761279188185406e-14
3.8615857282450614 4.0290571724797735 4.3547377951554196e-14
4.3614484909516715 4.031840270524636 3.973669599454038e-14
4.861256385112882 4.020619516209738 3.7808162970524655e-14
0.3776277988754624 4.209308725000694 -5.895679337015538e-14
0.39475433768355705 4.409428899554721 -6.278239968115065e-14
0.41205232228617833 4.609548844832376 -6.648490107380278e-14
0.42919802088123643 4.809668558407021 -7.010534352343211e-14
0.4458811972085863 5.009788037837353 -7.345455376455052e-14
0.46180566883536855 5.209907280666625 -7.656282408762027e-14
0.47668985044222995 5.410026284421893 -7.944823485854466e-14
0.49026727241452617 5.610145046613295 -8.213035006672376e-14
0.5022870655204787 5.810263564733387 -8.469268090963073e-14
5.377627904140866 4.190690918164567 4.147742601840281e-14
5.394754483207141 4.390570729253083 4.252391474233618e-14
5.4120525071199115 4.590450769108176 4.34936938889706e-14
5.429198238328808 4.790331041130238 4.430124335744727e-14
5.44588143483233 4.990211548693728 4.506339739983011e-14
5.4618059084642026 5.190092295146258 4.5753860260359055e-14
5.476690068180208 5.38997328380769 4.65850220889746e-14
5.490267438649404 5.589854517969279 4.717591203905965e-14
5.502287144931522 5.789736000892869 4.754281120662347e-14
1.0128649888474448 5.993117671789544 -6.429400581611811e-14
1.5131377208929453 5.98595113899215 -3.8715947311031796e-14
2.013332557688806 5.986386609541158 -1.2633378738500738e-14
2.5134494696587355 5.991912100409161 8.456177815293187e-15
3.0134884390574017 5.999999295367957 1.978413379518269e-14
3.513449459967113 6.008086531293046 2.5767265716837173e-14
4.013332538304893 6.013612144167084 3.042682763330395e-14
4.513137691819672 6.014047815135452 3.494964071698965e-14
5.012864950089499 6.006881556966429 4.123271313256984e-14

CELLS 90 270
2 0 8
2 8 9
2 9 10
2 10 11
2 11 12
2 12 13
2 13 14
2 14 15
2 15 16
2 16 2
2 1 17
2 17 18
2 18 19
2 19 20
2 20 21
2 21 22
2 22 23
2 23 24
2 24 25
2 25 3
2 2 26
2 26 27
2 27 28
2 28 29
2 29 30
2 30 31
2 31 32
2 32 33
2 33 34
2 34 3
2 2 35
2 35 36
2 36 37
2 37 38
2 38 39
2 39 40
2 40 41
2 41 42
2 42 43
2 43 4
2 3 44
2 44 45
2 45 46
2 46 47
2 47 48
2 48 49
2 49 50
2 50 51
2 51 52
2 52 5
2 4 53
2 53 54
2 54 55
2 55 56
2 56 57
2 57 58
2 58 59
2 59 60
2 60 61
2 61 5
2 4 62
2 62 63
2 63 64
2 64 65
2 65 66
2 66 67
2 67 68
2 68 69
2 69 70
2 70 6
2 5 71
2 71 72
2 72 73
2 73 74
2 74 75
2 75 76
2 76 77
2 77 78
2 78 79
2 79 7
2 6 80
2 80 81
2 81 82
2 82 83
2 83 84
2 84 85
2 85 86
2 86 87
2 87 88
2 88 7

CELL_TYPES 90
3
3
3
3
3
3
3
3
3
3
3
3
3
3
3
3
3
3
3
3
3
3
3
3
3
3
3
3
3
3
3
3
3
3
3
3
3
3
3
3
3
3
3
3
3
3
3
3
3
3
3
3
3
3
3
3
3
3
3
3
3
3
3
3
3
3
3
3
3
3
3
3
3
3
3
3
3
3
3
3
3
3
3
3
3
3
3
3
3
3

POINT_DATA 89
SCALARS MODE3_19.7959_Hz float 1
LOOKUP_TABLE default
0.0
0.0
0.00842895877809963
0.008428958902352856
0.02106569970441862
0.021065704286109887
0.029902806668902354
0.02990280434962054
0.0001462282334823463
0.0005473476866237185
0.001168353547044403
0.001970547906736685
0.0029152505168432374
0.003963845290340309
0.005077813092024696
0.006218766411933759
0.0073484860403609025
0.00014622783396988658
0.0005473473815682226
0.0011683533549960027
0.0019705478307199585
0.00291525054962212
0.003963845414911769
0.005077813281627815
0.006218766629930736
0.0073484862400344094
0.008571075181112836
0.008725453243587611
0.008671244302165516
0.008516699602084227
0.00843814629977435
0.008516698967225633
0.008671243250905862
0.008725452127001534
0.008571074430703311
0.00954353005921587
0.010779276795442492
0.012102485186295161
0.013479783305155556
0.014878188758173245
0.01626515674651195
0.01760862764069545
0.01887707339262975
0.020039542068053112
0.009543530058183902
0.01077927666680932
0.012102484974485603
0.013479783102751934
0.014878188706908527
0.016265157037895515
0.01760862851637113
0.018877075144551638
0.020039545038538092
0.02110758527557035
0.02116614355550101
0.02116049595874378
0.021120301493016327
0.021098905461682457
0.021120301864835923
0.021160496720647588
0.02116614485500447
0.021107587615908564
0.022034979980370288
0.023033904165733254
0.02404283870657604
0.025042903027371482
0.02601600273781094
0.026944862514024955
0.027813058052832434
0.02860504653685194
0.029306195081890085
0.02203498663195085
0.02303391316924055
0.02404285000739862
0.02504291623471192
0.02601601712520432
0.02694487701989406
0.02781307128105337
0.028605056757295605
0.029306200230894676
0.029919817960940315
0.029944250125026602
0.029954927159314925
0.029954934703888506
0.02995349227859837
0.02995493288150151
0.02995492410171848
0.029944246760073127
0.029919815096645035

