# vtk DataFile Version 2.0
mesh vtk view
ASCII
DATASET UNSTRUCTURED_GRID
POINTS 89 double
0.0 0.0 0.0
5.0 0.0 0.0
-2.0685918092797546e-16 2.0 -0.2739986695559052
5.0 2.0 -0.27399031573752086
-2.557876974078363e-16 4.0 -0.9230145620936504
5.0 4.0 -0.9229896807434961
-2.584282095392682e-16 6.0 -1.721013372383396
5.0 6.0 -1.7209718806520635
-5.0572828469722964e-18 0.1999999999996283 -0.0031398966757461514
-1.851079874628446e-17 0.3999999999991138 -0.012381673226611878
-3.86461461253695e-17 0.59999999999853 -0.027458480452319214
-6.281354326996618e-17 0.7999999999979462 -0.048103535389881574
-8.927876143651965e-17 0.9999999999973842 -0.0740501917841624
-1.1692126018583707e-16 1.19999999999789 -0.10503203672199225
-1.4425850451627128e-16 1.399999999998418 -0.14078301217627756
-1.7007718681995662e-16 1.599999999998945 -0.18103756021002965
-1.9066704049834406e-16 1.799999999999472 -0.22553079058898157
5.0 0.1999999999996283 -0.0031397725943617025
5.0 0.3999999999991138 -0.012381194845330007
5.0 0.59999999999853 -0.0274574445139471
5.0 0.7999999999979462 -0.04810176565702027
5.0 0.9999999999973842 -0.07404753909509808
5.0 1.19999999999789 -0.10502837904317752
5.0 1.399999999998418 -0.14077825465070085
5.0 1.599999999998945 -0.18103163520090143
5.0 1.799999999999472 -0.22552365771828967
0.49999999999959416 2.0 -0.27653118136200266
0.9999999999984118 2.0 -0.27874105665231824
1.4999999999969518 2.0 -0.2804482292637855
1.9999999999955078 2.0 -0.2815237779272111
2.499999999996199 2.0 -0.28189023565884885
2.99999999999696 2.0 -0.28152178519500315
3.499999999997719 2.0 -0.2804443250645592
3.99999999999848 2.0 -0.27873540235803823
4.49999999999924 2.0 -0.2765240177397755
-2.230330335498469e-16 2.2 -0.3261810119239008
-2.3372672354580912e-16 2.4 -0.38182985085336213
-2.4542519884346543e-16 2.6 -0.4407014363872699
-2.5068364886866583e-16 2.8 -0.5025538170854804
-2.554691736948079e-16 3.0 -0.5671471163055998
-2.605629209007883e-16 3.2 -0.6342438224924206
-2.6142191948854037e-16 3.4 -0.7036090923492258
-2.5857999631938397e-16 3.6 -0.7750110657753985
-2.586891089454212e-16 3.8 -0.8482211914673294
5.0 2.2 -0.32617134790666086
5.0 2.4 -0.3818187145021618
5.0 2.6 -0.4406886978156779
5.0 2.8 -0.5025393786684031
5.0 3.0 -0.5671309126844655
5.0 3.2 -0.6342258205724158
5.0 3.4 -0.7035892912882876
5.0 3.6 -0.7749894969647972
5.0 3.8 -0.8481979185038462
0.4999999999995941 4.0 -0.9284729505335844
0.9999999999984118 4.0 -0.9335213462701152
1.4999999999969518 4.0 -0.9375575961438024
1.9999999999955078 4.0 -0.9401508550039392
2.4999999999961986 4.0 -0.941042313344133
2.9999999999969598 4.0 -0.9401456663833209
3.4999999999977187 4.0 -0.9375472740144205
3.9999999999984794 4.0 -0.9335059978449828
4.49999999999924 4.0 -0.9284527332356719
-2.5139542897946607e-16 4.2 -0.9991794707668148
-2.517025890733361e-16 4.4 -1.0765451364217127
-2.4723850609666203e-16 4.6 -1.154954555140312
-2.463842274102963e-16 4.8 -1.2342557827244118
-2.472150133491375e-16 5.0 -1.314302302902563
-2.481848850659054e-16 5.2 -1.3949533997347987
-2.5024913511375185e-16 5.4 -1.4760745335272645
-2.5292620810966784e-16 5.6 -1.5575377195961106
-2.548540999044755e-16 5.8 -1.6392219092489981
5.0 4.2 -0.99915297669554
5.0 4.4 -1.0765169269107597
5.0 4.6 -1.1549245621263775
5.0 4.8 -1.234223972716822
5.0 5.0 -1.3142686768923066
5.0 5.2 -1.3949179930950781
5.0 5.4 -1.4760374159055625
5.0 5.6 -1.5574989947979319
5.0 5.8 -1.639181715113604
0.4999999999995941 6.0 -1.7289014134046523
0.9999999999984118 6.0 -1.7365299687029838
1.4999999999969518 6.0 -1.7427793623302852
1.9999999999955078 6.0 -1.746848599720248
2.4999999999961986 6.0 -1.7482564902026676
2.9999999999969598 6.0 -1.7468423803690416
3.4999999999977187 6.0 -1.7427664063477293
3.9999999999984794 6.0 -1.73650923794069
4.49999999999924 6.0 -1.7288713464363066

CELLS 90 270
2 0 8
2 8 9
2 9 10
2 10 11
2 11 12
2 12 13
2 13 14
2 14 15
2 15 16
2 16 2
2 1 17
2 17 18
2 18 19
2 19 20
2 20 21
2 21 22
2 22 23
2 23 24
2 24 25
2 25 3
2 2 26
2 26 27
2 27 28
2 28 29
2 29 30
2 30 31
2 31 32
2 32 33
2 33 34
2 34 3
2 2 35
2 35 36
2 36 37
2 37 38
2 38 39
2 39 40
2 40 41
2 41 42
2 42 43
2 43 4
2 3 44
2 44 45
2 45 46
2 46 47
2 47 48
2 48 49
2 49 50
2 50 51
2 51 52
2 52 5
2 4 53
2 53 54
2 54 55
2 55 56
2 56 57
2 57 58
2 58 59
2 59 60
2 60 61
2 61 5
2 4 62
2 62 63
2 63 64
2 64 65
2 65 66
2 66 67
2 67 68
2 68 69
2 69 70
2 70 6
2 5 71
2 71 72
2 72 73
2 73 74
2 74 75
2 75 76
2 76 77
2 77 78
2 78 79
2 79 7
2 6 80
2 80 81
2 81 82
2 82 83
2 83 84
2 84 85
2 85 86
2 86 87
2 87 88
2 88 7

CELL_TYPES 90
3
3
3
3
3
3
3
3
3
3
3
3
3
3
3
3
3
3
3
3
3
3
3
3
3
3
3
3
3
3
3
3
3
3
3
3
3
3
3
3
3
3
3
3
3
3
3
3
3
3
3
3
3
3
3
3
3
3
3
3
3
3
3
3
3
3
3
3
3
3
3
3
3
3
3
3
3
3
3
3
3
3
3
3
3
3
3
3
3
3

POINT_DATA 89
SCALARS MODE1_4.1397_Hz float 1
LOOKUP_TABLE default
0.0
0.0
0.00532775190803149
0.005327589472674017
0.0179475053740432
0.017947021570012423
0.03346414890745492
0.033463342123790124
6.105354647284183e-05
0.00024075475718411983
0.0005339148976839847
0.0009353465214699194
0.0014398648402476023
0.002042289602927627
0.0027374474589831744
0.0035201747818616874
0.004385320928119086
6.105113377925533e-05
0.00024074545532586124
0.0005338947544378603
0.0009353121099976163
0.0014398132601824627
0.0020422184813951184
0.002737354951541405
0.003520059573350861
0.004385182233411188
0.005376995193150051
0.005419964990461743
0.005453160013462495
0.005474073459695771
0.0054811990266998385
0.005474034712125061
0.005453084098477539
0.005419855045850743
0.0053768559004956345
0.00634240856518696
0.007424469322148707
0.008569194596419137
0.009771879776662119
0.011027860594831107
0.012332518770685955
0.0136812879067905
0.015069659612299413
0.01649318983408696
0.006342220653740628
0.007424252781986479
0.008568946901971514
0.009771599029663394
0.011027545524420162
0.012332168733352529
0.013680902886161148
0.015069240218759945
0.016492737304241452
0.018053640704819695
0.01815180395525224
0.018230286591685047
0.01828071106952104
0.018298044981691474
0.018280610179675683
0.01823008588361373
0.018151505513652442
0.01805324759069362
0.01942848970935473
0.020932822097088858
0.022457449683283844
0.023999417997419118
0.025555878111994276
0.027124093883732197
0.028701449263030143
0.03028545565881326
0.031873759346508296
0.019427974546857723
0.020932273578820326
0.022456866485790674
0.02399879946949376
0.025555224272905963
0.027123405421293184
0.028700727531497047
0.03028470267662645
0.031872977793875636
0.03361752748286824
0.03376586050255802
0.033887376489755545
0.033966500550115936
0.0339938761983852
0.03396637961828692
0.03388712456787251
0.0337654574044023
0.03361694284737263

