# vtk DataFile Version 2.0
mesh vtk view
ASCII
DATASET UNSTRUCTURED_GRID
POINTS 89 double
0.0 0.0 0.0
5.0 0.0 0.0
-3.447653015466256e-17 2.0 -0.045666444925984186
5.0 2.0 -0.04566505262292014
-4.263128290130604e-17 4.0 -0.1538357603489417
5.0 4.0 -0.1538316134572493
-4.307136825654469e-17 6.0 -0.28683556206389926
5.0 6.0 -0.28682864677534387
-8.428804744953825e-19 0.1999999999996283 -0.0005233161126243584
-3.0851331243807423e-18 0.3999999999991138 -0.0020636122044353123
-6.4410243542282486e-18 0.59999999999853 -0.0045764134087198675
-1.0468923878327692e-17 0.7999999999979462 -0.008017255898313593
-1.4879793572753273e-17 0.9999999999973842 -0.012341698630693732
-1.9486876697639505e-17 1.19999999999789 -0.01750533945366537
-2.4043084086045206e-17 1.399999999998418 -0.023463835362712918
-2.83461978033261e-17 1.599999999998945 -0.0301729267016716
-3.1777840083057337e-17 1.799999999999472 -0.03758846509816358
5.0 0.1999999999996283 -0.000523295432393617
5.0 0.3999999999991138 -0.0020635324742216674
5.0 0.59999999999853 -0.004576240752324516
5.0 0.7999999999979462 -0.008016960942836708
5.0 0.9999999999973842 -0.012341256515849677
5.0 1.19999999999789 -0.017504729840529584
5.0 1.399999999998418 -0.023463042441783467
5.0 1.599999999998945 -0.03017193920015023
5.0 1.799999999999472 -0.0375872762863816
0.4999999999995943 2.0 -0.04608853022700043
0.999999999998412 2.0 -0.04645684277538636
1.499999999996952 2.0 -0.04674137154396423
1.999999999995508 2.0 -0.046920629654535174
2.499999999996199 2.0 -0.04698170594314146
2.99999999999696 2.0 -0.046920297532500516
3.499999999997719 2.0 -0.046740720844093184
3.99999999999848 2.0 -0.04645590039300636
4.49999999999924 2.0 -0.04608733628996257
-3.71721722583078e-17 2.2 -0.054363501987316785
-3.8954453924301506e-17 2.4 -0.06363830847556033
-4.090419980724423e-17 2.6 -0.0734502393978783
-4.1780608144777624e-17 2.8 -0.08375896951424672
-4.2578195615801307e-17 3.0 -0.0945245193842666
-4.3427153483464705e-17 3.2 -0.10570730374873673
-4.357031991475672e-17 3.4 -0.11726818205820426
-4.309666605323065e-17 3.6 -0.12916851096256637
-4.311485149090352e-17 3.8 -0.1413701985778882
5.0 2.2 -0.05436189131777679
5.0 2.4 -0.06363645241702695
5.0 2.6 -0.07344811630261296
5.0 2.8 -0.08375656311140049
5.0 3.0 -0.09452181878074421
5.0 3.2 -0.10570430342873594
5.0 3.4 -0.11726488188138123
5.0 3.6 -0.1291649161607995
5.0 3.8 -0.14136631975064098
0.4999999999995943 4.0 -0.15474549175559735
0.999999999998412 4.0 -0.15558689104501916
1.499999999996952 4.0 -0.15625959935730035
1.999999999995508 4.0 -0.15669180916732317
2.499999999996199 4.0 -0.15684038555735547
2.99999999999696 4.0 -0.15669094439722012
3.499999999997719 4.0 -0.15625787900240337
3.99999999999848 4.0 -0.15558433297416374
4.49999999999924 4.0 -0.15474212220594527
-4.1899238163244336e-17 4.2 -0.16652991179446908
-4.195043151222267e-17 4.4 -0.17942418940361873
-4.1206417682776995e-17 4.6 -0.1924924258567186
-4.106403790171604e-17 4.8 -0.20570929712073524
-4.120250222485623e-17 5.0 -0.21905038381709374
-4.1364147510984223e-17 5.2 -0.23249223328913307
-4.1708189185625296e-17 5.4 -0.24601242225454403
-4.215436801827797e-17 5.6 -0.25958961993268503
-4.247568331741257e-17 5.8 -0.2732036515414996
5.0 4.2 -0.1665254961159233
5.0 4.4 -0.1794194878184599
5.0 4.6 -0.19248742702106286
5.0 4.8 -0.20570399545280363
5.0 5.0 -0.21904477948205106
5.0 5.2 -0.23248633218251294
5.0 5.4 -0.24600623598426033
5.0 5.6 -0.25958316579965524
5.0 5.8 -0.27319695251893394
0.4999999999995943 6.0 -0.28815023556744196
0.999999999998412 6.0 -0.28942166145049725
1.499999999996952 6.0 -0.29046322705504746
1.999999999995508 6.0 -0.29114143328670794
2.499999999996199 6.0 -0.29137608170044454
2.99999999999696 6.0 -0.29114039672817354
3.499999999997719 6.0 -0.29046106772462144
3.99999999999848 6.0 -0.2894182063234482
4.49999999999924 6.0 -0.288145224406051

CELLS 90 270
2 0 8
2 8 9
2 9 10
2 10 11
2 11 12
2 12 13
2 13 14
2 14 15
2 15 16
2 16 2
2 1 17
2 17 18
2 18 19
2 19 20
2 20 21
2 21 22
2 22 23
2 23 24
2 24 25
2 25 3
2 2 26
2 26 27
2 27 28
2 28 29
2 29 30
2 30 31
2 31 32
2 32 33
2 33 34
2 34 3
2 2 35
2 35 36
2 36 37
2 37 38
2 38 39
2 39 40
2 40 41
2 41 42
2 42 43
2 43 4
2 3 44
2 44 45
2 45 46
2 46 47
2 47 48
2 48 49
2 49 50
2 50 51
2 51 52
2 52 5
2 4 53
2 53 54
2 54 55
2 55 56
2 56 57
2 57 58
2 58 59
2 59 60
2 60 61
2 61 5
2 4 62
2 62 63
2 63 64
2 64 65
2 65 66
2 66 67
2 67 68
2 68 69
2 69 70
2 70 6
2 5 71
2 71 72
2 72 73
2 73 74
2 74 75
2 75 76
2 76 77
2 77 78
2 78 79
2 79 7
2 6 80
2 80 81
2 81 82
2 82 83
2 83 84
2 84 85
2 85 86
2 86 87
2 87 88
2 88 7

CELL_TYPES 90
3
3
3
3
3
3
3
3
3
3
3
3
3
3
3
3
3
3
3
3
3
3
3
3
3
3
3
3
3
3
3
3
3
3
3
3
3
3
3
3
3
3
3
3
3
3
3
3
3
3
3
3
3
3
3
3
3
3
3
3
3
3
3
3
3
3
3
3
3
3
3
3
3
3
3
3
3
3
3
3
3
3
3
3
3
3
3
3
3
3

POINT_DATA 89
SCALARS MODE1_4.1397_Hz float 1
LOOKUP_TABLE default
0.0
0.0
0.00532775190803149
0.005327589472674017
0.0179475053740432
0.017947021570012423
0.03346414890745492
0.033463342123790124
6.105354647284183e-05
0.00024075475718411983
0.0005339148976839847
0.0009353465214699194
0.0014398648402476023
0.002042289602927627
0.0027374474589831744
0.0035201747818616874
0.004385320928119086
6.105113377925533e-05
0.00024074545532586124
0.0005338947544378603
0.0009353121099976163
0.0014398132601824627
0.0020422184813951184
0.002737354951541405
0.003520059573350861
0.004385182233411188
0.005376995193150051
0.005419964990461743
0.005453160013462495
0.005474073459695771
0.0054811990266998385
0.005474034712125061
0.005453084098477539
0.005419855045850743
0.0053768559004956345
0.00634240856518696
0.007424469322148707
0.008569194596419137
0.009771879776662119
0.011027860594831107
0.012332518770685955
0.0136812879067905
0.015069659612299413
0.01649318983408696
0.006342220653740628
0.007424252781986479
0.008568946901971514
0.009771599029663394
0.011027545524420162
0.012332168733352529
0.013680902886161148
0.015069240218759945
0.016492737304241452
0.018053640704819695
0.01815180395525224
0.018230286591685047
0.01828071106952104
0.018298044981691474
0.018280610179675683
0.01823008588361373
0.018151505513652442
0.01805324759069362
0.01942848970935473
0.020932822097088858
0.022457449683283844
0.023999417997419118
0.025555878111994276
0.027124093883732197
0.028701449263030143
0.03028545565881326
0.031873759346508296
0.019427974546857723
0.020932273578820326
0.022456866485790674
0.02399879946949376
0.025555224272905963
0.027123405421293184
0.028700727531497047
0.03028470267662645
0.031872977793875636
0.03361752748286824
0.03376586050255802
0.033887376489755545
0.033966500550115936
0.0339938761983852
0.03396637961828692
0.03388712456787251
0.0337654574044023
0.03361694284737263

