# vtk DataFile Version 2.0
mesh vtk view
ASCII
DATASET UNSTRUCTURED_GRID
POINTS 89 double
0.0 0.0 0.0
5.0 0.0 0.0
0.2887590718703722 2.011622336509182 -3.025841951753003e-14
5.288759071027201 1.9883775366138325 2.523633016839966e-14
0.7220187401551184 4.018376647166123 -1.0957178216194916e-13
5.7220188797814275 3.9816226648344655 8.013423571182934e-14
1.025028805906062 6.020763672513077 -1.7304495802332841e-13
6.025028709034147 5.979235471620293 9.584186008047932e-14
0.004876845644528927 0.2011627356585414 -3.9395580315920413e-16
0.018621570264193626 0.40232542974172775 -1.4453314957825901e-15
0.03990568483523283 0.6034880560066042 -3.0463841394913374e-15
0.06740139144577871 0.8046505882107882 -5.0574822069175125e-15
0.09978226618735005 1.005813000112043 -7.54337262224629e-15
0.1357241455281799 1.2069752654686656 -1.0948446622296595e-14
0.1739061727286284 1.408137358035421 -1.4778475596938905e-14
0.21301196093750366 1.6092992515655704 -1.9131403019514938e-14
0.2517308297140786 1.8104609198086494 -2.4626105162129157e-14
5.004876845746636 0.19883732383226266 3.6385073632112094e-16
5.0186215712517255 0.3976746625707098 1.3620138591045605e-15
5.039905687181435 0.5965120464525533 2.902622110389868e-15
5.067401395314092 0.7953495057128338 4.98203542067314e-15
5.099782271431831 0.9941870705826228 7.502547900759632e-15
5.1357241516940855 1.1930247712880264 1.048810689382129e-14
5.173906179053153 1.3918626380447845 1.368715196047122e-14
5.213011966350665 1.590700701058891 1.7296952952587755e-14
5.2517308328397085 1.7895389905230126 2.108998735426793e-14
0.7889566003995754 1.9465118999746809 -7.535218265865679e-14
1.289110264784855 1.9231169638694305 -1.334289075591232e-13
1.7892200417001742 1.9311600310899049 -1.6092756478217415e-13
2.2892859144814888 1.9602719350780133 -1.6340700083819606e-13
2.7893078731313086 1.999999919852776 -1.4084281734757535e-13
3.2892859143142053 2.039727906166068 -1.0472125707223179e-13
3.789220041363494 2.0688398146676135 -7.04622354650438e-14
4.289110264278816 2.076882889071397 -3.370740407589233e-14
4.78895659972453 2.0534879623177047 2.9630999748786045e-15
0.3269755047555578 2.212299316633742 -3.707445689746273e-14
0.3693473370095224 2.4129759917728766 -4.451366905322904e-14
0.4147176950789191 2.6136523472302318 -5.249823367827825e-14
0.4619418360193198 2.8143283682989666 -6.092674374925985e-14
0.5098886213256423 3.0150040402598997 -7.006849605749941e-14
0.5574420516314835 3.215679348379561 -7.861598975849471e-14
0.6035028252423253 3.4163542779082143 -8.74909220614299e-14
0.6469898839637194 3.6170288140778943 -9.517152658550995e-14
0.6868419102323725 3.8177029421005173 -1.0202799669585071e-13
5.326975498414122 2.1877005157225744 3.0030968406421083e-14
5.369347324835569 2.3870237873220534 3.5587305165380185e-14
5.414717678490628 2.5863473695885064 4.168701634433997e-14
5.461941818188198 2.7856712806723705 4.802883665066169e-14
5.509888607177357 2.9849955386956353 5.438423504762207e-14
5.557442047846747 3.184320161749096 6.0263550149361e-14
5.603502840257975 3.383645167889576 6.619583728980433e-14
5.6469899279742295 3.5829705751371725 7.15833658772449e-14
5.68684199519207 3.782296401472565 7.630666101898752e-14
1.2225126585003878 3.9587604182281875 -5.5355984238340515e-14
1.7228968980950825 3.936319015287454 1.515138882526206e-14
2.2231714006114247 3.941885285785317 6.22113241168185e-14
2.723336124379723 3.9662165685275546 8.517155913232641e-14
3.2233910443967235 3.999999844825547 9.473337959508277e-14
3.723336152323402 4.0337831064473875 9.522558376370811e-14
4.223171456492404 4.058114344959547 8.709475590310839e-14
4.722896981904864 4.063680541049273 7.947339198908076e-14
5.222512770226524 4.041239032419475 7.561632594104931e-14
0.7552555977509248 4.218617450001389 -1.1791358674031077e-13
0.7895086753671141 4.418857799109441 -1.255647993623013e-13
0.8241046445723567 4.619097689664752 -1.3296980214760555e-13
0.8583960417624729 4.819337116814043 -1.4021068704686422e-13
0.8917623944171726 5.019576075674706 -1.4690910752910104e-13
0.9236113376707371 5.2198145613332505 -1.5312564817524054e-13
0.9533797008844599 5.4200525688437855 -1.5889646971708931e-13
0.9805345448290523 5.62029009322659 -1.6426070013344752e-13
1.0045741310409575 5.820527129466775 -1.6938536181926145e-13
5.755255808281731 4.181381836329132 8.295485203680562e-14
5.789508966414282 4.381141458506166 8.504782948467236e-14
5.824105014239822 4.580901538216352 8.69873877779412e-14
5.8583964766576155 4.780662082260475 8.860248671489455e-14
5.891762869664659 4.980423097387456 9.012679479966022e-14
5.923611816928405 5.180184590292515 9.150772052071811e-14
5.9533801363604155 5.379946567615378 9.31700441779492e-14
5.980534877298809 5.579709035938558 9.43518240781193e-14
6.004574289863043 5.77947200178574 9.508562241324694e-14
1.5257299776952953 5.986235343579088 -1.2858801163223622e-13
2.0262754417874786 5.9719022779843005 -7.743189462206359e-14
2.5266651153806596 5.972773219082317 -2.5266757477001476e-14
3.0268989393219634 5.983824200818323 1.6912355630586374e-14
3.5269768781186044 5.999998590735913 3.956826759036538e-14
4.026898919937265 6.016173062586091 5.1534531433674346e-14
4.526665076612067 6.027224288334168 6.08536552666079e-14
5.026275383640863 6.028095630270904 6.98992814339793e-14
5.525729900179758 6.013763113932859 8.246542626513968e-14

CELLS 90 270
2 0 8
2 8 9
2 9 10
2 10 11
2 11 12
2 12 13
2 13 14
2 14 15
2 15 16
2 16 2
2 1 17
2 17 18
2 18 19
2 19 20
2 20 21
2 21 22
2 22 23
2 23 24
2 24 25
2 25 3
2 2 26
2 26 27
2 27 28
2 28 29
2 29 30
2 30 31
2 31 32
2 32 33
2 33 34
2 34 3
2 2 35
2 35 36
2 36 37
2 37 38
2 38 39
2 39 40
2 40 41
2 41 42
2 42 43
2 43 4
2 3 44
2 44 45
2 45 46
2 46 47
2 47 48
2 48 49
2 49 50
2 50 51
2 51 52
2 52 5
2 4 53
2 53 54
2 54 55
2 55 56
2 56 57
2 57 58
2 58 59
2 59 60
2 60 61
2 61 5
2 4 62
2 62 63
2 63 64
2 64 65
2 65 66
2 66 67
2 67 68
2 68 69
2 69 70
2 70 6
2 5 71
2 71 72
2 72 73
2 73 74
2 74 75
2 75 76
2 76 77
2 77 78
2 78 79
2 79 7
2 6 80
2 80 81
2 81 82
2 82 83
2 83 84
2 84 85
2 85 86
2 86 87
2 87 88
2 88 7

CELL_TYPES 90
3
3
3
3
3
3
3
3
3
3
3
3
3
3
3
3
3
3
3
3
3
3
3
3
3
3
3
3
3
3
3
3
3
3
3
3
3
3
3
3
3
3
3
3
3
3
3
3
3
3
3
3
3
3
3
3
3
3
3
3
3
3
3
3
3
3
3
3
3
3
3
3
3
3
3
3
3
3
3
3
3
3
3
3
3
3
3
3
3
3

POINT_DATA 89
SCALARS MODE3_19.7959_Hz float 1
LOOKUP_TABLE default
0.0
0.0
0.00842895877809963
0.008428958902352856
0.02106569970441862
0.021065704286109887
0.029902806668902354
0.02990280434962054
0.0001462282334823463
0.0005473476866237185
0.001168353547044403
0.001970547906736685
0.0029152505168432374
0.003963845290340309
0.005077813092024696
0.006218766411933759
0.0073484860403609025
0.00014622783396988658
0.0005473473815682226
0.0011683533549960027
0.0019705478307199585
0.00291525054962212
0.003963845414911769
0.005077813281627815
0.006218766629930736
0.0073484862400344094
0.008571075181112836
0.008725453243587611
0.008671244302165516
0.008516699602084227
0.00843814629977435
0.008516698967225633
0.008671243250905862
0.008725452127001534
0.008571074430703311
0.00954353005921587
0.010779276795442492
0.012102485186295161
0.013479783305155556
0.014878188758173245
0.01626515674651195
0.01760862764069545
0.01887707339262975
0.020039542068053112
0.009543530058183902
0.01077927666680932
0.012102484974485603
0.013479783102751934
0.014878188706908527
0.016265157037895515
0.01760862851637113
0.018877075144551638
0.020039545038538092
0.02110758527557035
0.02116614355550101
0.02116049595874378
0.021120301493016327
0.021098905461682457
0.021120301864835923
0.021160496720647588
0.02116614485500447
0.021107587615908564
0.022034979980370288
0.023033904165733254
0.02404283870657604
0.025042903027371482
0.02601600273781094
0.026944862514024955
0.027813058052832434
0.02860504653685194
0.029306195081890085
0.02203498663195085
0.02303391316924055
0.02404285000739862
0.02504291623471192
0.02601601712520432
0.02694487701989406
0.02781307128105337
0.028605056757295605
0.029306200230894676
0.029919817960940315
0.029944250125026602
0.029954927159314925
0.029954934703888506
0.02995349227859837
0.02995493288150151
0.02995492410171848
0.029944246760073127
0.029919815096645035

