# vtk DataFile Version 2.0
mesh vtk view
ASCII
DATASET UNSTRUCTURED_GRID
POINTS 89 double
0.0 0.0 0.0
5.0 0.0 0.0
-0.5053283757731515 1.9796609111089318 5.295223415567756e-14
4.494671625702399 2.020339310925793 -4.416357779469942e-14
-1.2635327952714575 3.9678408674592838 1.9175061878341107e-13
3.7364669603825007 4.032160336539685 -1.4023491249570136e-13
-1.7938004103356087 5.9636635731021155 3.028286765408248e-13
3.2061997591902425 6.036337924664487 -1.6772325514083883e-13
-0.008534479877925624 0.1979652125965304 6.894226555286074e-16
-0.03258774796233885 0.39593049794953933 2.5293301176195333e-15
-0.06983494846165747 0.5938959019844003 5.331172244109841e-15
-0.11795243503011278 0.7918614706254729 8.850593862105648e-15
-0.17461896582786263 0.9898272497967312 1.320090208893101e-14
-0.2375172546743149 1.187793285424033 1.915978158901905e-14
-0.30433580227509976 1.3857596234336627 2.586233229464309e-14
-0.3727709316406315 1.5837263097573502 3.347995528415115e-14
-0.4405289519996377 1.7816933903334116 4.309568403372603e-14
4.991465519943387 0.20203468329251817 -6.367387885619618e-16
4.96741225030948 0.4040693404988207 -2.3835242534329816e-15
4.930165047432488 0.6061039187039894 -5.07958869318227e-15
4.882047558200339 0.8081383649968931 -8.718561986177996e-15
4.825381024994296 1.0101726264732167 -1.3129458826329359e-14
4.762482734535351 1.2122066502401516 -1.835418706418726e-14
4.695664186656981 1.4142403834172768 -2.395251593082464e-14
4.6272290588863365 1.6162737731440395 -3.0269667667028574e-14
4.559471042530509 1.818306766583276 -3.6907477869968886e-14
-0.005674050700372579 2.0936041750443084 1.318663196526494e-13
0.4940570366221372 2.1345453132284966 2.335005882284656e-13
0.9938649270163131 2.1204699455926663 2.816232383688048e-13
1.4937496496450413 2.0695241136134763 2.8596225146684317e-13
1.9937112220097575 2.000000140257642 2.464749303582569e-13
2.4937496499417815 1.9304761642093813 1.832621998764057e-13
2.9938649276076124 1.8795303243316765 1.2330891206382667e-13
3.494057037507892 1.8654549441250554 5.898795713281159e-14
3.9943259504799817 1.9063960659440164 -5.185424956037559e-15
-0.5722071333222263 2.1784761958909518 6.488029957055979e-14
-0.6463578397666644 2.377292014397466 7.789892084315084e-14
-0.7257559663881086 2.5761083923470944 9.187190893698697e-14
-0.8083982130338099 2.7749253554768076 1.0662180156120475e-13
-0.8923050873198741 2.9737429295451756 1.2261986810062398e-13
-0.9755235903550964 3.1725611403357683 1.3757798207736578e-13
-1.0561299441740695 3.371380013660625 1.5310911360750236e-13
-1.1322322969365093 3.5701995753636853 1.6655017152464244e-13
-1.2019733429066521 3.769019851324094 1.7854899421773879e-13
4.4277928777752855 2.2215240974854953 -5.2554194711236907e-14
4.353642181537753 2.4227083721864062 -6.227778403941535e-14
4.274244062641401 2.6238921032201143 -7.295227860259497e-14
4.191601818170653 2.825075258823351 -8.405046413865797e-14
4.107694937439623 3.0262578072826383 -9.517241133333864e-14
4.024476416268191 3.227439716939083 -1.0546121276138178e-13
3.943870029548543 3.4286209561932415 -1.158427152571576e-13
3.8677676260450977 3.6298014935099485 -1.252708902851786e-13
3.7980265084138773 3.83098129742301 -1.335366567832282e-13
-0.7643971523767943 4.072169268100672 9.687297241709592e-14
-0.2650695716707615 4.111441723246956 -2.651493044420861e-14
0.23445004892162435 4.101700749875695 -1.0886981720443239e-13
0.7341617823231315 4.059121005076779 -1.4905022848157127e-13
1.2340656722952807 4.000000271555292 -1.657834142913949e-13
1.7341617334256867 3.940879563717072 -1.6664477158648925e-13
2.2344499511320204 3.8982998963207924 -1.5241582283043973e-13
2.734930281662308 3.888559053163773 -1.3907843598089137e-13
3.2356026521014916 3.9278316932659183 -1.3232857039683633e-13
-1.3216972960641187 4.16741946249757 2.0634877679554387e-13
-1.38164018189245 4.3669988515584794 2.1973839888402732e-13
-1.4421831280016246 4.5665790430866835 2.326971537583098e-13
-1.5021930730843278 4.766160045575424 2.4536870233201243e-13
-1.5605841902300526 4.965741867569264 2.5709093817592693e-13
-1.6163198409237902 5.1653245176668126 2.67969884306671e-13
-1.668414476547805 5.364908004523376 2.7806882200490635e-13
-1.715935453450842 5.5644923368534664 2.8745622523353323e-13
-1.7580047293216758 5.7640775234331425 2.964243831837076e-13
3.6783023355069706 4.232581786424019 -1.4517099106440988e-13
3.6183593087750063 4.43300244761421 -1.4883370159817666e-13
3.557816225080311 4.633422308121382 -1.5222792861139716e-13
3.4978061658491724 4.833841356044167 -1.550543517510655e-13
3.4394149780868455 5.034259579571952 -1.5772189089940544e-13
3.3836793203752915 5.234676966988099 -1.6013851091125674e-13
3.331584761369273 5.435093506673089 -1.6304757731141113e-13
3.284063964727084 5.635509187107523 -1.6511569213670881e-13
3.2419949927396745 5.835923996874955 -1.663998392231822e-13
-1.295027460967883 6.024088148736596 2.2502902035641344e-13
-0.7959820231324549 6.0491710135274745 1.355058155886113e-13
-0.2966639519245369 6.0476468666059455 4.421682558475259e-14
0.20292685617421102 6.028307648567935 -2.959662235352616e-14
0.702790463281989 6.000002466212152 -6.924446828313944e-14
1.2029268901014256 5.9716971404743395 -9.018543000893013e-14
1.7033361159226088 5.952357495415206 -1.0649389671656385e-13
2.2040180786243084 5.950832647025918 -1.2232374250946381e-13
2.704972674683331 5.975914550617497 -1.4431449596399446e-13

CELLS 90 270
2 0 8
2 8 9
2 9 10
2 10 11
2 11 12
2 12 13
2 13 14
2 14 15
2 15 16
2 16 2
2 1 17
2 17 18
2 18 19
2 19 20
2 20 21
2 21 22
2 22 23
2 23 24
2 24 25
2 25 3
2 2 26
2 26 27
2 27 28
2 28 29
2 29 30
2 30 31
2 31 32
2 32 33
2 33 34
2 34 3
2 2 35
2 35 36
2 36 37
2 37 38
2 38 39
2 39 40
2 40 41
2 41 42
2 42 43
2 43 4
2 3 44
2 44 45
2 45 46
2 46 47
2 47 48
2 48 49
2 49 50
2 50 51
2 51 52
2 52 5
2 4 53
2 53 54
2 54 55
2 55 56
2 56 57
2 57 58
2 58 59
2 59 60
2 60 61
2 61 5
2 4 62
2 62 63
2 63 64
2 64 65
2 65 66
2 66 67
2 67 68
2 68 69
2 69 70
2 70 6
2 5 71
2 71 72
2 72 73
2 73 74
2 74 75
2 75 76
2 76 77
2 77 78
2 78 79
2 79 7
2 6 80
2 80 81
2 81 82
2 82 83
2 83 84
2 84 85
2 85 86
2 86 87
2 87 88
2 88 7

CELL_TYPES 90
3
3
3
3
3
3
3
3
3
3
3
3
3
3
3
3
3
3
3
3
3
3
3
3
3
3
3
3
3
3
3
3
3
3
3
3
3
3
3
3
3
3
3
3
3
3
3
3
3
3
3
3
3
3
3
3
3
3
3
3
3
3
3
3
3
3
3
3
3
3
3
3
3
3
3
3
3
3
3
3
3
3
3
3
3
3
3
3
3
3

POINT_DATA 89
SCALARS MODE3_19.7959_Hz float 1
LOOKUP_TABLE default
0.0
0.0
0.00842895877809963
0.008428958902352856
0.02106569970441862
0.021065704286109887
0.029902806668902354
0.02990280434962054
0.0001462282334823463
0.0005473476866237185
0.001168353547044403
0.001970547906736685
0.0029152505168432374
0.003963845290340309
0.005077813092024696
0.006218766411933759
0.0073484860403609025
0.00014622783396988658
0.0005473473815682226
0.0011683533549960027
0.0019705478307199585
0.00291525054962212
0.003963845414911769
0.005077813281627815
0.006218766629930736
0.0073484862400344094
0.008571075181112836
0.008725453243587611
0.008671244302165516
0.008516699602084227
0.00843814629977435
0.008516698967225633
0.008671243250905862
0.008725452127001534
0.008571074430703311
0.00954353005921587
0.010779276795442492
0.012102485186295161
0.013479783305155556
0.014878188758173245
0.01626515674651195
0.01760862764069545
0.01887707339262975
0.020039542068053112
0.009543530058183902
0.01077927666680932
0.012102484974485603
0.013479783102751934
0.014878188706908527
0.016265157037895515
0.01760862851637113
0.018877075144551638
0.020039545038538092
0.02110758527557035
0.02116614355550101
0.02116049595874378
0.021120301493016327
0.021098905461682457
0.021120301864835923
0.021160496720647588
0.02116614485500447
0.021107587615908564
0.022034979980370288
0.023033904165733254
0.02404283870657604
0.025042903027371482
0.02601600273781094
0.026944862514024955
0.027813058052832434
0.02860504653685194
0.029306195081890085
0.02203498663195085
0.02303391316924055
0.02404285000739862
0.02504291623471192
0.02601601712520432
0.02694487701989406
0.02781307128105337
0.028605056757295605
0.029306200230894676
0.029919817960940315
0.029944250125026602
0.029954927159314925
0.029954934703888506
0.02995349227859837
0.02995493288150151
0.02995492410171848
0.029944246760073127
0.029919815096645035

