# vtk DataFile Version 2.0
mesh vtk view
ASCII
DATASET UNSTRUCTURED_GRID
POINTS 89 double
0.0 0.0 0.0
5.0 0.0 0.0
-0.07218976796759305 1.9970944158727046 7.564604879382507e-15
4.9278102322432 2.002905615846542 -6.309082542099915e-15
-0.1805046850387796 3.995405838208469 2.739294554048729e-14
4.819495280054643 4.004594333791384 -2.0033558927957335e-14
-0.2562572014765155 5.994809081871731 4.3261239505832103e-14
4.7437428227414635 6.005191132094927 -2.396046502011983e-14
-0.0012192114111322318 0.19970931608490003 9.848895078980103e-17
-0.0046553925660484064 0.39941864256346027 3.6133287394564753e-16
-0.009976421208808208 0.5991279859965115 7.615960348728344e-16
-0.016850347861444678 0.7988373529447358 1.2643705517293781e-15
-0.02494556654683751 0.9985467499687195 1.8858431555615724e-15
-0.03393103638204498 1.1982561836301961 2.737111655574149e-15
-0.0434765431821571 1.3979656604891673 3.694618899234726e-15
-0.053252990234375915 1.5976751871072885 4.7828507548787346e-15
-0.06293270742851965 1.7973847700471777 6.156526290532289e-15
4.998780788563341 0.20029066904146972 -9.096268408028023e-17
4.995344607187069 0.4005813343562148 -3.4050346477614014e-16
4.990023578204641 0.6008719883850242 -7.25655527597467e-16
4.983149651171477 0.8011626235692244 -1.245508855168285e-15
4.975054432142042 1.0014532323510745 -1.875636975189908e-15
4.966068962076479 1.2017438071753561 -2.6220267234553223e-15
4.956523455236711 1.4020343404868265 -3.421787990117805e-15
4.946747008412334 1.6023248247339585 -4.324238238146939e-15
4.937067291790073 1.8026152523685868 -5.272496838566982e-15
0.4277608498995991 2.01337202500633 1.8838045664664197e-14
0.9277224338018013 2.0192207590326423 3.33572268897808e-14
1.4276949895711464 2.017209992227524 4.023189119554354e-14
1.9276785213740129 2.0099320162304966 4.0851750209549014e-14
2.4276730317124215 2.000000020036806 3.5210704336893837e-14
2.927678521417649 1.990068023458483 2.6180314268057948e-14
3.4276949896562754 1.9827900463330967 1.761555886626095e-14
3.927722433928396 1.9807792777321507 8.426851018973082e-15
4.4277608500679175 1.9866280094205737 -7.407749937196511e-16
-0.08174387618888945 2.1969251708415647 9.268614224365682e-15
-0.0923368342523806 2.396756002056781 1.112841726330726e-14
-0.10367942376972977 2.596586913192442 1.3124558419569563e-14
-0.11548545900482995 2.796417907925258 1.5231685937314962e-14
-0.12747215533141057 2.996248989935025 1.7517124014374852e-14
-0.13936051290787088 3.19608016290511 1.965399743962368e-14
-0.15087570631058134 3.3959114305229465 2.1872730515357475e-14
-0.16174747099092984 3.5957427964805264 2.3792881646377487e-14
-0.17171047755809313 3.7955742644748702 2.5506999173962678e-14
4.91825612539647 2.2030748710693566 -7.507742101605271e-15
4.907663168791108 2.4032440531694865 -8.896826291345046e-15
4.896320580377343 2.6034131576028736 -1.0421754086084993e-14
4.884514545452951 2.803582179831907 -1.2007209162665422e-14
4.87252784820566 3.003751115326091 -1.3596058761905517e-14
4.860639488038313 3.203919959562726 -1.506588753734025e-14
4.8491242899355065 3.4040887080276057 -1.6548959322451083e-14
4.838252518006443 3.604257356215707 -1.7895841469311224e-14
4.828289501201983 3.8044258996318585 -1.907666525474688e-14
0.31937183537439606 4.010309895442953 1.3838996059585129e-14
0.8192757754742445 4.015920246178136 -3.787847206315515e-15
1.3192071498433338 4.0145286785536705 -1.5552831029204624e-14
1.8191659688994544 4.008445857868112 -2.1292889783081603e-14
2.3191522388960677 4.000000038793613 -2.3683344898770693e-14
2.81916596191535 3.991554223388153 -2.380639594092703e-14
3.319207135874048 3.9854714137601133 -2.1773688975777098e-14
3.819275754521884 3.984079864737682 -1.986834799727019e-14
4.319371807442419 3.989690241895131 -1.8904081485262328e-14
-0.1888138994377312 4.195345637499653 2.947839668507769e-14
-0.19737716884177853 4.39528555022264 3.1391199840575324e-14
-0.20602616114308916 4.595225577583812 3.324245053690139e-14
-0.21459901044061822 4.795165720796489 3.5052671761716055e-14
-0.22294059860429316 4.995105981081323 3.672727688227526e-14
-0.23090283441768428 5.195046359666688 3.8281412043810135e-14
-0.23834492522111497 5.394986857789054 3.972411742927233e-14
-0.24513363620726308 5.594927476693352 4.106517503336188e-14
-0.2511435327602394 5.794868217633306 4.2346340454815363e-14
4.811186047929567 4.204654540917717 -2.0738713009201406e-14
4.80262275839643 4.404714635373459 -2.126195737116809e-14
4.793973746440044 4.604774615445911 -2.17468469444853e-14
4.785400880835597 4.804834479434881 -2.2150621678723636e-14
4.777059282583835 5.004894225653136 -2.2531698699915055e-14
4.769097045767899 5.204953852426871 -2.2876930130179527e-14
4.761654965909896 5.405013358096156 -2.32925110444873e-14
4.754866280675298 5.60507274101536 -2.3587956019529825e-14
4.748856427534239 5.805131999553565 -2.3771405603311735e-14
0.24356750557566914 6.003441164105228 3.2147002908059054e-14
0.7434311395511455 6.007024430503925 1.9357973655515898e-14
1.2433337211510251 6.006806695229421 6.316689369250369e-15
1.7432752651638943 6.004043949795419 -4.2280889076465935e-15
2.2432557804655975 6.000000352316022 -9.892066897591345e-15
2.7432752700118836 5.995956734353477 -1.2883632858418586e-14
3.243333730844132 5.993193927916458 -1.5213413816651976e-14
3.743431154087884 5.992976092432274 -1.7474820358494825e-14
4.24356752495411 5.996559221516785 -2.061635656628492e-14

CELLS 90 270
2 0 8
2 8 9
2 9 10
2 10 11
2 11 12
2 12 13
2 13 14
2 14 15
2 15 16
2 16 2
2 1 17
2 17 18
2 18 19
2 19 20
2 20 21
2 21 22
2 22 23
2 23 24
2 24 25
2 25 3
2 2 26
2 26 27
2 27 28
2 28 29
2 29 30
2 30 31
2 31 32
2 32 33
2 33 34
2 34 3
2 2 35
2 35 36
2 36 37
2 37 38
2 38 39
2 39 40
2 40 41
2 41 42
2 42 43
2 43 4
2 3 44
2 44 45
2 45 46
2 46 47
2 47 48
2 48 49
2 49 50
2 50 51
2 51 52
2 52 5
2 4 53
2 53 54
2 54 55
2 55 56
2 56 57
2 57 58
2 58 59
2 59 60
2 60 61
2 61 5
2 4 62
2 62 63
2 63 64
2 64 65
2 65 66
2 66 67
2 67 68
2 68 69
2 69 70
2 70 6
2 5 71
2 71 72
2 72 73
2 73 74
2 74 75
2 75 76
2 76 77
2 77 78
2 78 79
2 79 7
2 6 80
2 80 81
2 81 82
2 82 83
2 83 84
2 84 85
2 85 86
2 86 87
2 87 88
2 88 7

CELL_TYPES 90
3
3
3
3
3
3
3
3
3
3
3
3
3
3
3
3
3
3
3
3
3
3
3
3
3
3
3
3
3
3
3
3
3
3
3
3
3
3
3
3
3
3
3
3
3
3
3
3
3
3
3
3
3
3
3
3
3
3
3
3
3
3
3
3
3
3
3
3
3
3
3
3
3
3
3
3
3
3
3
3
3
3
3
3
3
3
3
3
3
3

POINT_DATA 89
SCALARS MODE3_19.7959_Hz float 1
LOOKUP_TABLE default
0.0
0.0
0.00842895877809963
0.008428958902352856
0.02106569970441862
0.021065704286109887
0.029902806668902354
0.02990280434962054
0.0001462282334823463
0.0005473476866237185
0.001168353547044403
0.001970547906736685
0.0029152505168432374
0.003963845290340309
0.005077813092024696
0.006218766411933759
0.0073484860403609025
0.00014622783396988658
0.0005473473815682226
0.0011683533549960027
0.0019705478307199585
0.00291525054962212
0.003963845414911769
0.005077813281627815
0.006218766629930736
0.0073484862400344094
0.008571075181112836
0.008725453243587611
0.008671244302165516
0.008516699602084227
0.00843814629977435
0.008516698967225633
0.008671243250905862
0.008725452127001534
0.008571074430703311
0.00954353005921587
0.010779276795442492
0.012102485186295161
0.013479783305155556
0.014878188758173245
0.01626515674651195
0.01760862764069545
0.01887707339262975
0.020039542068053112
0.009543530058183902
0.01077927666680932
0.012102484974485603
0.013479783102751934
0.014878188706908527
0.016265157037895515
0.01760862851637113
0.018877075144551638
0.020039545038538092
0.02110758527557035
0.02116614355550101
0.02116049595874378
0.021120301493016327
0.021098905461682457
0.021120301864835923
0.021160496720647588
0.02116614485500447
0.021107587615908564
0.022034979980370288
0.023033904165733254
0.02404283870657604
0.025042903027371482
0.02601600273781094
0.026944862514024955
0.027813058052832434
0.02860504653685194
0.029306195081890085
0.02203498663195085
0.02303391316924055
0.02404285000739862
0.02504291623471192
0.02601601712520432
0.02694487701989406
0.02781307128105337
0.028605056757295605
0.029306200230894676
0.029919817960940315
0.029944250125026602
0.029954927159314925
0.029954934703888506
0.02995349227859837
0.02995493288150151
0.02995492410171848
0.029944246760073127
0.029919815096645035

