# vtk DataFile Version 2.0
mesh vtk view
ASCII
DATASET UNSTRUCTURED_GRID
POINTS 89 double
0.0 0.0 0.0
5.0 0.0 0.0
0.2165693039027792 2.0087167523818863 -2.2693814638147528e-14
5.216569303270401 1.9912831524603745 1.8927247626299753e-14
0.5415140551163389 4.013782485374593 -8.217883662146189e-14
5.541514159836071 3.9862169986258493 6.010067678387202e-14
0.7687716044295466 6.015572754384808 -1.2978371851749634e-13
5.76877153177561 5.98442660371522 7.18813950603595e-14
0.0036576342333966964 0.20087205174381312 -2.954668523694032e-16
0.013966177698145222 0.4017440723060743 -1.083998621836943e-15
0.029929263626424632 0.6026160420045856 -2.2847881046185035e-15
0.05055104358433405 0.8034879411575777 -3.793111655188136e-15
0.07483669964051255 1.0043597500833783 -5.6575294666847185e-15
0.10179310914613496 1.2052314491009717 -8.21133496672245e-15
0.13042962954647133 1.4061030185261705 -1.1083856697704183e-14
0.1597589707031278 1.6069744386739142 -1.4348552264636207e-14
0.188798122285559 1.807845689856355 -1.8469578871596873e-14
5.003657634309977 0.19912799287410407 2.728880522408408e-16
5.013966178438794 0.39825599692781083 1.0215103943284207e-15
5.029929265386077 0.5973840348390475 2.1769665827924017e-15
5.050551046485569 0.7965121292841119 3.736526565504856e-15
5.074836703573873 0.9956403029363132 5.626910925569725e-15
5.101793113770563 1.1947685784654922 7.86608017036597e-15
5.130429634289865 1.393896978533193 1.0265363970353418e-14
5.159758974762998 1.5930255257939043 1.2972714714440819e-14
5.188798124629781 1.7921542428921275 1.581749051570095e-14
0.7167174502995802 1.9598839249810107 -5.6514136993992607e-14
1.216832698588244 1.9423377229020728 -1.0007168066934242e-13
1.7169150312743686 1.9483700233174286 -1.2069567358663064e-13
2.216964435859994 1.9702039513085101 -1.2255525062864709e-13
2.716980904847531 1.999999939889582 -1.0563211301068155e-13
3.216964435734894 2.029795929624551 -7.854094280417388e-14
3.7169150310220505 2.05162986100071 -5.284667659878286e-14
4.216832698208732 2.0576621668035475 -2.5280553056919254e-14
4.716717449793207 2.0401159717382784 2.222324981158954e-15
0.2452316285666684 2.2092244874753066 -2.7805842673097058e-14
0.2770105027571419 2.409731993829657 -3.338525178992179e-14
0.31103827130918943 2.610239260422674 -3.93736752587087e-14
0.34645637701448995 2.8107462762242252 -4.56950578119449e-14
0.3824164659942318 3.0112530301949247 -5.2551372043124564e-14
0.41808153872361276 3.211759511284671 -5.896199231887105e-14
0.4526271189317441 3.4122657084311605 -6.561819154607243e-14
0.4852424129727897 3.6127716105584207 -7.137864493913248e-14
0.5151314326742795 3.813277206575388 -7.652099752188805e-14
5.245231623810592 2.190775386791931 2.2523226304815817e-14
5.277010493626677 2.39026784049154 2.6690478874035148e-14
5.3110382588679705 2.58976052719138 3.126526225825499e-14
5.346456363641149 2.789253460504278 3.602162748799627e-14
5.3824164553830185 2.9887466540217265 4.078817628571656e-14
5.418081535885061 3.188240121311822 4.519766261202077e-14
5.452627130193481 3.3877338759171822 4.964687796735326e-14
5.485242445980672 3.587227931352879 5.368752440793369e-14
5.515131496394052 3.7867223011044238 5.722999576424066e-14
1.0418844938751894 3.9690703136711405 -4.15169881787554e-14
1.542172673570915 3.9522392614655906 1.1363541618946547e-14
2.0423785504578067 3.9564139643389877 4.6658493087613884e-14
2.5425020932836695 3.974662426395666 6.387866934924484e-14
3.0425432832965926 3.9999998836191604 7.10500346963121e-14
3.542502114241792 4.025337329835541 7.14191878227811e-14
4.042378592368733 4.043585758719661 6.532106692733132e-14
4.542172736428268 4.0477604057869545 5.960504399181058e-14
5.041884577669704 4.030929274314606 5.6712244455787e-14
0.5664416983131937 4.213963087501042 -8.84351900552331e-14
0.5921315065253357 4.414143349332081 -9.4173599521726e-14
0.6180784834292677 4.6143232672485635 -9.972735161070419e-14
0.6437970313218548 4.814502837610532 -1.0515801528514819e-13
0.6688217958128797 5.01468205675603 -1.1018183064682582e-13
0.692708503253053 5.2148609209999375 -1.1484423613143045e-13
0.7150347756633451 5.415039426632839 -1.1917235228781702e-13
0.7354009086217894 5.615217569919943 -1.2319552510008566e-13
0.7534305982807182 5.815395347100082 -1.2703902136444611e-13
5.5664418562112985 4.186036377246849 6.221613902760423e-14
5.592131724810711 4.3858560938796245 6.378587211350428e-14
5.618078760679866 4.5856761536622646 6.524054083345592e-14
5.643797357493212 4.785496561695357 6.645186503617092e-14
5.668822152248495 4.985317323040592 6.759509609974519e-14
5.692708862696303 5.185138442719387 6.863079039053861e-14
5.715035102270312 5.3849599257115335 6.987753313346192e-14
5.735401157974107 5.5847817769539185 7.07638680585895e-14
5.753430717397283 5.7846040013393045 7.131421680993523e-14
1.2692974832713704 5.989676507684316 -9.644100872417719e-14
1.7697065813402122 5.978926708488225 -5.807392096654771e-14
2.2699988365347328 5.979579914311738 -1.8950068107751112e-14
2.77017420449035 5.987868150613742 1.2684266722939784e-14
3.2702326585880033 5.999998943051935 2.9676200692774046e-14
3.7701741899521894 6.012129796939568 3.865089857525577e-14
4.269998807458481 6.020418216250626 4.564024144995594e-14
4.769706537730268 6.021071722703178 5.242446107548449e-14
5.269297425134629 6.0103223354496444 6.184906969885477e-14

CELLS 90 270
2 0 8
2 8 9
2 9 10
2 10 11
2 11 12
2 12 13
2 13 14
2 14 15
2 15 16
2 16 2
2 1 17
2 17 18
2 18 19
2 19 20
2 20 21
2 21 22
2 22 23
2 23 24
2 24 25
2 25 3
2 2 26
2 26 27
2 27 28
2 28 29
2 29 30
2 30 31
2 31 32
2 32 33
2 33 34
2 34 3
2 2 35
2 35 36
2 36 37
2 37 38
2 38 39
2 39 40
2 40 41
2 41 42
2 42 43
2 43 4
2 3 44
2 44 45
2 45 46
2 46 47
2 47 48
2 48 49
2 49 50
2 50 51
2 51 52
2 52 5
2 4 53
2 53 54
2 54 55
2 55 56
2 56 57
2 57 58
2 58 59
2 59 60
2 60 61
2 61 5
2 4 62
2 62 63
2 63 64
2 64 65
2 65 66
2 66 67
2 67 68
2 68 69
2 69 70
2 70 6
2 5 71
2 71 72
2 72 73
2 73 74
2 74 75
2 75 76
2 76 77
2 77 78
2 78 79
2 79 7
2 6 80
2 80 81
2 81 82
2 82 83
2 83 84
2 84 85
2 85 86
2 86 87
2 87 88
2 88 7

CELL_TYPES 90
3
3
3
3
3
3
3
3
3
3
3
3
3
3
3
3
3
3
3
3
3
3
3
3
3
3
3
3
3
3
3
3
3
3
3
3
3
3
3
3
3
3
3
3
3
3
3
3
3
3
3
3
3
3
3
3
3
3
3
3
3
3
3
3
3
3
3
3
3
3
3
3
3
3
3
3
3
3
3
3
3
3
3
3
3
3
3
3
3
3

POINT_DATA 89
SCALARS MODE3_19.7959_Hz float 1
LOOKUP_TABLE default
0.0
0.0
0.00842895877809963
0.008428958902352856
0.02106569970441862
0.021065704286109887
0.029902806668902354
0.02990280434962054
0.0001462282334823463
0.0005473476866237185
0.001168353547044403
0.001970547906736685
0.0029152505168432374
0.003963845290340309
0.005077813092024696
0.006218766411933759
0.0073484860403609025
0.00014622783396988658
0.0005473473815682226
0.0011683533549960027
0.0019705478307199585
0.00291525054962212
0.003963845414911769
0.005077813281627815
0.006218766629930736
0.0073484862400344094
0.008571075181112836
0.008725453243587611
0.008671244302165516
0.008516699602084227
0.00843814629977435
0.008516698967225633
0.008671243250905862
0.008725452127001534
0.008571074430703311
0.00954353005921587
0.010779276795442492
0.012102485186295161
0.013479783305155556
0.014878188758173245
0.01626515674651195
0.01760862764069545
0.01887707339262975
0.020039542068053112
0.009543530058183902
0.01077927666680932
0.012102484974485603
0.013479783102751934
0.014878188706908527
0.016265157037895515
0.01760862851637113
0.018877075144551638
0.020039545038538092
0.02110758527557035
0.02116614355550101
0.02116049595874378
0.021120301493016327
0.021098905461682457
0.021120301864835923
0.021160496720647588
0.02116614485500447
0.021107587615908564
0.022034979980370288
0.023033904165733254
0.02404283870657604
0.025042903027371482
0.02601600273781094
0.026944862514024955
0.027813058052832434
0.02860504653685194
0.029306195081890085
0.02203498663195085
0.02303391316924055
0.02404285000739862
0.02504291623471192
0.02601601712520432
0.02694487701989406
0.02781307128105337
0.028605056757295605
0.029306200230894676
0.029919817960940315
0.029944250125026602
0.029954927159314925
0.029954934703888506
0.02995349227859837
0.02995493288150151
0.02995492410171848
0.029944246760073127
0.029919815096645035

