# vtk DataFile Version 2.0
mesh vtk view
ASCII
DATASET UNSTRUCTURED_GRID
POINTS 89 double
0.0 0.0 0.0
5.0 0.0 0.0
-0.2165693039027792 1.9912832476181137 2.2693814638147528e-14
4.783430696729599 2.0087168475396258 -1.8927247626299753e-14
-0.5415140551163389 3.9862175146254075 8.217883662146189e-14
4.458485840163929 4.013783001374151 -6.010067678387202e-14
-0.7687716044295466 5.984427245615192 1.2978371851749634e-13
4.23122846822439 6.01557339628478 -7.18813950603595e-14
-0.0036576342333966964 0.1991279482554435 2.954668523694032e-16
-0.013966177698145222 0.3982559276921533 1.083998621836943e-15
-0.029929263626424632 0.5973839579924745 2.2847881046185035e-15
-0.05055104358433405 0.7965120588383148 3.793111655188136e-15
-0.07483669964051255 0.9956402499113901 5.6575294666847185e-15
-0.10179310914613496 1.1947685508948085 8.21133496672245e-15
-0.13042962954647133 1.3938969814706657 1.1083856697704183e-14
-0.1597589707031278 1.5930255613239757 1.4348552264636207e-14
-0.188798122285559 1.792154310142589 1.8469578871596873e-14
4.996342365690023 0.20087200712515255 -2.728880522408408e-16
4.986033821561206 0.40174400307041674 -1.0215103943284207e-15
4.970070734613923 0.6026159651580126 -2.1769665827924017e-15
4.949448953514431 0.8034878707117806 -3.736526565504856e-15
4.925163296426127 1.0043596970584552 -5.626910925569725e-15
4.898206886229437 1.205231421530288 -7.86608017036597e-15
4.869570365710135 1.4061030214636432 -1.0265363970353418e-14
4.840241025237002 1.6069744742039855 -1.2972714714440819e-14
4.811201875370219 1.8078457571068165 -1.581749051570095e-14
0.28328254969960853 2.0401160750189895 5.6514136993992607e-14
0.7831673014085799 2.057662277097927 1.0007168066934242e-13
1.2830849687195354 2.0516299766825714 1.2069567358663064e-13
1.7830355641310223 2.02979604869149 1.2255525062864709e-13
2.283019095144867 2.000000060110418 1.0563211301068155e-13
2.7830355642590265 1.970204070375449 7.854094280417388e-14
3.283084968973388 1.94837013899929 5.284667659878286e-14
3.783167301788228 1.9423378331964523 2.5280553056919254e-14
4.283282550205272 1.9598840282617214 -2.222324981158954e-15
-0.2452316285666684 2.1907755125246937 2.7805842673097058e-14
-0.2770105027571419 2.3902680061703427 3.338525178992179e-14
-0.31103827130918943 2.589760739577326 3.93736752587087e-14
-0.34645637701448995 2.7892537237757744 4.56950578119449e-14
-0.3824164659942318 2.9887469698050753 5.2551372043124564e-14
-0.41808153872361276 3.1882404887153295 5.896199231887105e-14
-0.4526271189317441 3.3877342915688393 6.561819154607243e-14
-0.4852424129727897 3.5872283894415795 7.137864493913248e-14
-0.5151314326742795 3.7867227934246115 7.652099752188805e-14
4.754768376189408 2.2092246132080695 -2.2523226304815817e-14
4.722989506373323 2.4097321595084598 -2.6690478874035148e-14
4.6889617411320295 2.6102394728086202 -3.126526225825499e-14
4.653543636358851 2.810746539495722 -3.602162748799627e-14
4.6175835446169815 3.0112533459782735 -4.078817628571656e-14
4.581918464114939 3.2117598786881785 -4.519766261202077e-14
4.547372869806519 3.4122661240828176 -4.964687796735326e-14
4.514757554019328 3.612772068647121 -5.368752440793369e-14
4.484868503605948 3.813277698895576 -5.722999576424066e-14
-0.04188449387600074 4.030929686328859 4.15169881787554e-14
0.45782732642590906 4.04776073853441 -1.1363541618946547e-14
0.9576214495360973 4.043586035661012 -4.6658493087613884e-14
1.4574979067073466 4.025337573604334 -6.387866934924484e-14
1.9574567166958055 4.000000116380839 -7.10500346963121e-14
2.4574978857521286 3.9746626701644594 -7.14191878227811e-14
2.9576214076267053 3.9564142412803394 -6.532106692733132e-14
3.457827263568692 3.9522395942130455 -5.960504399181058e-14
3.9581154223287762 3.9690707256853934 -5.6712244455787e-14
-0.5664416983131937 4.186036912498959 8.84351900552331e-14
-0.5921315065253357 4.38585665066792 9.4173599521726e-14
-0.6180784834292677 4.585676732751436 9.972735161070419e-14
-0.6437970313218548 4.7854971623894675 1.0515801528514819e-13
-0.6688217958128797 4.98531794324397 1.1018183064682582e-13
-0.692708503253053 5.185139079000063 1.1484423613143045e-13
-0.7150347756633451 5.384960573367161 1.1917235228781702e-13
-0.7354009086217894 5.584782430080057 1.2319552510008566e-13
-0.7534305982807182 5.784604652899918 1.2703902136444611e-13
4.4335581437887015 4.213963622753151 -6.221613902760423e-14
4.407868275189289 4.414143906120376 -6.378587211350428e-14
4.381921239320134 4.614323846337735 -6.524054083345592e-14
4.356202642506788 4.814503438304643 -6.645186503617092e-14
4.331177847751505 5.014682676959408 -6.759509609974519e-14
4.307291137303697 5.214861557280614 -6.863079039053861e-14
4.284964897729688 5.415040074288467 -6.987753313346192e-14
4.264598842025893 5.615218223046081 -7.07638680585895e-14
4.246569282602717 5.815395998660695 -7.131421680993523e-14
-0.26929748327218156 6.010323492315684 9.644100872417719e-14
0.2302934186566119 6.021073291511775 5.807392096654771e-14
0.7300011634591711 6.020420085688262 1.8950068107751112e-14
1.2298257955006664 6.012131849386258 -1.2684266722939784e-14
1.7297673414043948 6.000001056948065 -2.9676200692774046e-14
2.229825810041731 5.987870203060432 -3.865089857525577e-14
2.7300011925369576 5.979581783749374 -4.564024144995594e-14
3.230293462266692 5.978928277296822 -5.242446107548449e-14
3.7307025748638503 5.9896776645503556 -6.184906969885477e-14

CELLS 90 270
2 0 8
2 8 9
2 9 10
2 10 11
2 11 12
2 12 13
2 13 14
2 14 15
2 15 16
2 16 2
2 1 17
2 17 18
2 18 19
2 19 20
2 20 21
2 21 22
2 22 23
2 23 24
2 24 25
2 25 3
2 2 26
2 26 27
2 27 28
2 28 29
2 29 30
2 30 31
2 31 32
2 32 33
2 33 34
2 34 3
2 2 35
2 35 36
2 36 37
2 37 38
2 38 39
2 39 40
2 40 41
2 41 42
2 42 43
2 43 4
2 3 44
2 44 45
2 45 46
2 46 47
2 47 48
2 48 49
2 49 50
2 50 51
2 51 52
2 52 5
2 4 53
2 53 54
2 54 55
2 55 56
2 56 57
2 57 58
2 58 59
2 59 60
2 60 61
2 61 5
2 4 62
2 62 63
2 63 64
2 64 65
2 65 66
2 66 67
2 67 68
2 68 69
2 69 70
2 70 6
2 5 71
2 71 72
2 72 73
2 73 74
2 74 75
2 75 76
2 76 77
2 77 78
2 78 79
2 79 7
2 6 80
2 80 81
2 81 82
2 82 83
2 83 84
2 84 85
2 85 86
2 86 87
2 87 88
2 88 7

CELL_TYPES 90
3
3
3
3
3
3
3
3
3
3
3
3
3
3
3
3
3
3
3
3
3
3
3
3
3
3
3
3
3
3
3
3
3
3
3
3
3
3
3
3
3
3
3
3
3
3
3
3
3
3
3
3
3
3
3
3
3
3
3
3
3
3
3
3
3
3
3
3
3
3
3
3
3
3
3
3
3
3
3
3
3
3
3
3
3
3
3
3
3
3

POINT_DATA 89
SCALARS MODE3_19.7959_Hz float 1
LOOKUP_TABLE default
0.0
0.0
0.00842895877809963
0.008428958902352856
0.02106569970441862
0.021065704286109887
0.029902806668902354
0.02990280434962054
0.0001462282334823463
0.0005473476866237185
0.001168353547044403
0.001970547906736685
0.0029152505168432374
0.003963845290340309
0.005077813092024696
0.006218766411933759
0.0073484860403609025
0.00014622783396988658
0.0005473473815682226
0.0011683533549960027
0.0019705478307199585
0.00291525054962212
0.003963845414911769
0.005077813281627815
0.006218766629930736
0.0073484862400344094
0.008571075181112836
0.008725453243587611
0.008671244302165516
0.008516699602084227
0.00843814629977435
0.008516698967225633
0.008671243250905862
0.008725452127001534
0.008571074430703311
0.00954353005921587
0.010779276795442492
0.012102485186295161
0.013479783305155556
0.014878188758173245
0.01626515674651195
0.01760862764069545
0.01887707339262975
0.020039542068053112
0.009543530058183902
0.01077927666680932
0.012102484974485603
0.013479783102751934
0.014878188706908527
0.016265157037895515
0.01760862851637113
0.018877075144551638
0.020039545038538092
0.02110758527557035
0.02116614355550101
0.02116049595874378
0.021120301493016327
0.021098905461682457
0.021120301864835923
0.021160496720647588
0.02116614485500447
0.021107587615908564
0.022034979980370288
0.023033904165733254
0.02404283870657604
0.025042903027371482
0.02601600273781094
0.026944862514024955
0.027813058052832434
0.02860504653685194
0.029306195081890085
0.02203498663195085
0.02303391316924055
0.02404285000739862
0.02504291623471192
0.02601601712520432
0.02694487701989406
0.02781307128105337
0.028605056757295605
0.029306200230894676
0.029919817960940315
0.029944250125026602
0.029954927159314925
0.029954934703888506
0.02995349227859837
0.02995493288150151
0.02995492410171848
0.029944246760073127
0.029919815096645035

