# vtk DataFile Version 2.0
mesh vtk view
ASCII
DATASET UNSTRUCTURED_GRID
POINTS 89 double
0.0 0.0 0.0
5.0 0.0 0.0
-6.895306030932516e-17 2.0 -0.09133288985196841
5.0 2.0 -0.0913301052458403
-8.52625658026121e-17 4.0 -0.3076715206978835
5.0 4.0 -0.3076632269144987
-8.614273651308942e-17 6.0 -0.5736711241277987
5.0 6.0 -0.573657293550688
-1.6857609489907658e-18 0.1999999999996283 -0.0010466322252487173
-6.170266248761488e-18 0.3999999999991138 -0.004127224408870626
-1.2882048708456502e-17 0.59999999999853 -0.009152826817439738
-2.0937847756655394e-17 0.7999999999979462 -0.016034511796627193
-2.975958714550656e-17 0.9999999999973842 -0.024683397261387473
-3.897375339527903e-17 1.19999999999789 -0.035010678907330756
-4.808616817209043e-17 1.399999999998418 -0.046927670725425856
-5.669239560665222e-17 1.599999999998945 -0.060345853403343225
-6.35556801661147e-17 1.799999999999472 -0.0751769301963272
5.0 0.1999999999996283 -0.0010465908647872345
5.0 0.3999999999991138 -0.004127064948443337
5.0 0.59999999999853 -0.009152481504649035
5.0 0.7999999999979462 -0.016033921885673423
5.0 0.9999999999973842 -0.024682513031699365
5.0 1.19999999999789 -0.03500945968105918
5.0 1.399999999998418 -0.046926084883566956
5.0 1.599999999998945 -0.060343878400300484
5.0 1.799999999999472 -0.07517455257276323
0.4999999999995943 2.0 -0.0921770604540009
0.9999999999984119 2.0 -0.09291368555077276
1.499999999996952 2.0 -0.0934827430879285
1.999999999995508 2.0 -0.09384125930907038
2.499999999996199 2.0 -0.09396341188628296
2.99999999999696 2.0 -0.09384059506500106
3.499999999997719 2.0 -0.0934814416881864
3.99999999999848 2.0 -0.09291180078601274
4.49999999999924 2.0 -0.09217467257992518
-7.434434451661564e-17 2.2 -0.10872700397463361
-7.790890784860305e-17 2.4 -0.12727661695112072
-8.180839961448848e-17 2.6 -0.14690047879575666
-8.356121628955528e-17 2.8 -0.1675179390284935
-8.515639123160265e-17 3.0 -0.1890490387685333
-8.685430696692945e-17 3.2 -0.21141460749747354
-8.714063982951348e-17 3.4 -0.23453636411640863
-8.619333210646134e-17 3.6 -0.25833702192513286
-8.622970298180707e-17 3.8 -0.28274039715577653
5.0 2.2 -0.10872378263555363
5.0 2.4 -0.12727290483405396
5.0 2.6 -0.14689623260522597
5.0 2.8 -0.16751312622280107
5.0 3.0 -0.1890436375614885
5.0 3.2 -0.21140860685747195
5.0 3.4 -0.23452976376276258
5.0 3.6 -0.2583298323215991
5.0 3.8 -0.2827326395012821
0.49999999999959427 4.0 -0.3094909835111948
0.9999999999984119 4.0 -0.31117378209003843
1.499999999996952 4.0 -0.3125191987146009
1.999999999995508 4.0 -0.31338361833464645
2.499999999996199 4.0 -0.31368077111471104
2.99999999999696 4.0 -0.31338188879444034
3.499999999997719 4.0 -0.31251575800480685
3.99999999999848 4.0 -0.31116866594832765
4.49999999999924 4.0 -0.3094842444118907
-8.379847632648871e-17 4.2 -0.3330598235889383
-8.390086302444538e-17 4.4 -0.35884837880723763
-8.241283536555403e-17 4.6 -0.3849848517134374
-8.212807580343212e-17 4.8 -0.41141859424147065
-8.24050044497125e-17 5.0 -0.43810076763418765
-8.272829502196848e-17 5.2 -0.4649844665782663
-8.341637837125063e-17 5.4 -0.49202484450908823
-8.430873603655597e-17 5.6 -0.5191792398653703
-8.495136663482516e-17 5.8 -0.5464073030829995
5.0 4.2 -0.33305099223184675
5.0 4.4 -0.35883897563691997
5.0 4.6 -0.3849748540421259
5.0 4.8 -0.4114079909056074
5.0 5.0 -0.4380895589641023
5.0 5.2 -0.4649726643650261
5.0 5.4 -0.4920124719685209
5.0 5.6 -0.5191663315993107
5.0 5.8 -0.5463939050378681
0.49999999999959427 6.0 -0.5763004711348843
0.9999999999984119 6.0 -0.5788433229009947
1.499999999996952 6.0 -0.5809264541100951
1.999999999995508 6.0 -0.5822828665734161
2.499999999996199 6.0 -0.5827521634008893
2.99999999999696 6.0 -0.5822807934563473
3.499999999997719 6.0 -0.5809221354492431
3.99999999999848 6.0 -0.5788364126468967
4.49999999999924 6.0 -0.5762904488121022

CELLS 90 270
2 0 8
2 8 9
2 9 10
2 10 11
2 11 12
2 12 13
2 13 14
2 14 15
2 15 16
2 16 2
2 1 17
2 17 18
2 18 19
2 19 20
2 20 21
2 21 22
2 22 23
2 23 24
2 24 25
2 25 3
2 2 26
2 26 27
2 27 28
2 28 29
2 29 30
2 30 31
2 31 32
2 32 33
2 33 34
2 34 3
2 2 35
2 35 36
2 36 37
2 37 38
2 38 39
2 39 40
2 40 41
2 41 42
2 42 43
2 43 4
2 3 44
2 44 45
2 45 46
2 46 47
2 47 48
2 48 49
2 49 50
2 50 51
2 51 52
2 52 5
2 4 53
2 53 54
2 54 55
2 55 56
2 56 57
2 57 58
2 58 59
2 59 60
2 60 61
2 61 5
2 4 62
2 62 63
2 63 64
2 64 65
2 65 66
2 66 67
2 67 68
2 68 69
2 69 70
2 70 6
2 5 71
2 71 72
2 72 73
2 73 74
2 74 75
2 75 76
2 76 77
2 77 78
2 78 79
2 79 7
2 6 80
2 80 81
2 81 82
2 82 83
2 83 84
2 84 85
2 85 86
2 86 87
2 87 88
2 88 7

CELL_TYPES 90
3
3
3
3
3
3
3
3
3
3
3
3
3
3
3
3
3
3
3
3
3
3
3
3
3
3
3
3
3
3
3
3
3
3
3
3
3
3
3
3
3
3
3
3
3
3
3
3
3
3
3
3
3
3
3
3
3
3
3
3
3
3
3
3
3
3
3
3
3
3
3
3
3
3
3
3
3
3
3
3
3
3
3
3
3
3
3
3
3
3

POINT_DATA 89
SCALARS MODE1_4.1397_Hz float 1
LOOKUP_TABLE default
0.0
0.0
0.00532775190803149
0.005327589472674017
0.0179475053740432
0.017947021570012423
0.03346414890745492
0.033463342123790124
6.105354647284183e-05
0.00024075475718411983
0.0005339148976839847
0.0009353465214699194
0.0014398648402476023
0.002042289602927627
0.0027374474589831744
0.0035201747818616874
0.004385320928119086
6.105113377925533e-05
0.00024074545532586124
0.0005338947544378603
0.0009353121099976163
0.0014398132601824627
0.0020422184813951184
0.002737354951541405
0.003520059573350861
0.004385182233411188
0.005376995193150051
0.005419964990461743
0.005453160013462495
0.005474073459695771
0.0054811990266998385
0.005474034712125061
0.005453084098477539
0.005419855045850743
0.0053768559004956345
0.00634240856518696
0.007424469322148707
0.008569194596419137
0.009771879776662119
0.011027860594831107
0.012332518770685955
0.0136812879067905
0.015069659612299413
0.01649318983408696
0.006342220653740628
0.007424252781986479
0.008568946901971514
0.009771599029663394
0.011027545524420162
0.012332168733352529
0.013680902886161148
0.015069240218759945
0.016492737304241452
0.018053640704819695
0.01815180395525224
0.018230286591685047
0.01828071106952104
0.018298044981691474
0.018280610179675683
0.01823008588361373
0.018151505513652442
0.01805324759069362
0.01942848970935473
0.020932822097088858
0.022457449683283844
0.023999417997419118
0.025555878111994276
0.027124093883732197
0.028701449263030143
0.03028545565881326
0.031873759346508296
0.019427974546857723
0.020932273578820326
0.022456866485790674
0.02399879946949376
0.025555224272905963
0.027123405421293184
0.028700727531497047
0.03028470267662645
0.031872977793875636
0.03361752748286824
0.03376586050255802
0.033887376489755545
0.033966500550115936
0.0339938761983852
0.03396637961828692
0.03388712456787251
0.0337654574044023
0.03361694284737263

