# vtk DataFile Version 2.0
mesh vtk view
ASCII
DATASET UNSTRUCTURED_GRID
POINTS 89 double
0.0 0.0 0.0
5.0 0.0 0.0
-2.41335711082638e-16 2.0 -0.3196651144818894
5.0 2.0 -0.319655368360441
-2.984189803091423e-16 4.0 -1.076850322442592
5.0 4.0 -1.0768212942007453
-3.014995777958129e-16 6.0 -2.007848934447295
5.0 6.0 -2.0078005274274076
-5.900163321467679e-18 0.1999999999996283 -0.00366321278837051
-2.15959318706652e-17 0.3999999999991138 -0.01444528543104719
-4.508717047959775e-17 0.59999999999853 -0.03203489386103908
-7.328246714829386e-17 0.7999999999979462 -0.056120791288195165
-1.0415855500927293e-16 0.9999999999973842 -0.08639189041485613
-1.3640813688347658e-16 1.19999999999789 -0.12253737617565763
-1.683015886023165e-16 1.399999999998418 -0.16424684753899046
-1.9842338462328274e-16 1.599999999998945 -0.21121048691170125
-2.224448805814014e-16 1.799999999999472 -0.26311925568714517
5.0 0.1999999999996283 -0.0036630680267553195
5.0 0.3999999999991138 -0.014444727319551674
5.0 0.59999999999853 -0.03203368526627162
5.0 0.7999999999979462 -0.05611872659985698
5.0 0.9999999999973842 -0.08638879561094776
5.0 1.19999999999789 -0.12253310888370711
5.0 1.399999999998418 -0.1642412970924843
5.0 1.599999999998945 -0.21120357440105167
5.0 1.799999999999472 -0.2631109340046712
0.49999999999959416 2.0 -0.3226197115890031
0.9999999999984118 2.0 -0.3251978994277046
1.4999999999969518 2.0 -0.3271896008077497
1.9999999999955078 2.0 -0.32844440758174626
2.4999999999961986 2.0 -0.3288719416019903
2.9999999999969598 2.0 -0.3284420827275037
3.4999999999977187 2.0 -0.3271850459086523
3.9999999999984794 2.0 -0.3251913027510446
4.49999999999924 2.0 -0.32261135402973806
-2.602052058081547e-16 2.2 -0.3805445139112176
-2.726811774701106e-16 2.4 -0.4454681593289224
-2.8632939865070965e-16 2.6 -0.5141516757851482
-2.9246425701344346e-16 2.8 -0.5863127865997272
-2.980473693106092e-16 3.0 -0.6616716356898664
-3.03990074384253e-16 3.2 -0.7399511262411573
-3.049922394032971e-16 3.4 -0.8208772744074301
-3.016766623726146e-16 3.6 -0.9041795767379648
-3.018039604363247e-16 3.8 -0.9895913900452177
5.0 2.2 -0.38053323922443766
5.0 2.4 -0.44545516691918874
5.0 2.6 -0.5141368141182908
5.0 2.8 -0.5862959417798036
5.0 3.0 -0.6616527314652096
5.0 3.2 -0.7399301240011518
5.0 3.4 -0.8208541731696689
5.0 3.6 -0.9041544131255967
5.0 3.8 -0.9895642382544871
0.4999999999995941 4.0 -1.0832184422891817
0.9999999999984117 4.0 -1.0891082373151344
1.4999999999969518 4.0 -1.093817195501103
1.9999999999955078 4.0 -1.0968426641712623
2.4999999999961986 4.0 -1.0978826989014885
2.9999999999969598 4.0 -1.096836610780541
3.4999999999977187 4.0 -1.0938051530168238
3.9999999999984794 4.0 -1.0890903308191464
4.49999999999924 4.0 -1.0831948554416173
-2.9329466714271043e-16 4.2 -1.1657093825612839
-2.9365302058555873e-16 4.4 -1.2559693258253315
-2.88444923779439e-16 4.6 -1.3474469809970306
-2.8744826531201237e-16 4.8 -1.439965079845147
-2.884175155739937e-16 5.0 -1.5333526867196565
-2.8954903257688965e-16 5.2 -1.6274456330239317
-2.9195732429937713e-16 5.4 -1.7220869557818086
-2.950805761279458e-16 5.6 -1.8171273395287957
-2.9732978322188803e-16 5.8 -1.9124255607904979
5.0 4.2 -1.1656784728114633
5.0 4.4 -1.2559364147292196
5.0 4.6 -1.3474119891474405
5.0 4.8 -1.4399279681696258
5.0 5.0 -1.5333134563743578
5.0 5.2 -1.627404325277591
5.0 5.4 -1.7220436518898228
5.0 5.6 -1.8170821605975869
5.0 5.8 -1.912378667632538
0.4999999999995941 6.0 -2.017051648972094
0.9999999999984117 6.0 -2.025951630153481
1.4999999999969518 6.0 -2.0332425893853325
1.9999999999955078 6.0 -2.037990033006956
2.4999999999961986 6.0 -2.039632571903112
2.9999999999969598 6.0 -2.037982777097215
3.4999999999977187 6.0 -2.033227474072351
3.9999999999984794 6.0 -2.025927444264138
4.49999999999924 6.0 -2.0170165708423577

CELLS 90 270
2 0 8
2 8 9
2 9 10
2 10 11
2 11 12
2 12 13
2 13 14
2 14 15
2 15 16
2 16 2
2 1 17
2 17 18
2 18 19
2 19 20
2 20 21
2 21 22
2 22 23
2 23 24
2 24 25
2 25 3
2 2 26
2 26 27
2 27 28
2 28 29
2 29 30
2 30 31
2 31 32
2 32 33
2 33 34
2 34 3
2 2 35
2 35 36
2 36 37
2 37 38
2 38 39
2 39 40
2 40 41
2 41 42
2 42 43
2 43 4
2 3 44
2 44 45
2 45 46
2 46 47
2 47 48
2 48 49
2 49 50
2 50 51
2 51 52
2 52 5
2 4 53
2 53 54
2 54 55
2 55 56
2 56 57
2 57 58
2 58 59
2 59 60
2 60 61
2 61 5
2 4 62
2 62 63
2 63 64
2 64 65
2 65 66
2 66 67
2 67 68
2 68 69
2 69 70
2 70 6
2 5 71
2 71 72
2 72 73
2 73 74
2 74 75
2 75 76
2 76 77
2 77 78
2 78 79
2 79 7
2 6 80
2 80 81
2 81 82
2 82 83
2 83 84
2 84 85
2 85 86
2 86 87
2 87 88
2 88 7

CELL_TYPES 90
3
3
3
3
3
3
3
3
3
3
3
3
3
3
3
3
3
3
3
3
3
3
3
3
3
3
3
3
3
3
3
3
3
3
3
3
3
3
3
3
3
3
3
3
3
3
3
3
3
3
3
3
3
3
3
3
3
3
3
3
3
3
3
3
3
3
3
3
3
3
3
3
3
3
3
3
3
3
3
3
3
3
3
3
3
3
3
3
3
3

POINT_DATA 89
SCALARS MODE1_4.1397_Hz float 1
LOOKUP_TABLE default
0.0
0.0
0.00532775190803149
0.005327589472674017
0.0179475053740432
0.017947021570012423
0.03346414890745492
0.033463342123790124
6.105354647284183e-05
0.00024075475718411983
0.0005339148976839847
0.0009353465214699194
0.0014398648402476023
0.002042289602927627
0.0027374474589831744
0.0035201747818616874
0.004385320928119086
6.105113377925533e-05
0.00024074545532586124
0.0005338947544378603
0.0009353121099976163
0.0014398132601824627
0.0020422184813951184
0.002737354951541405
0.003520059573350861
0.004385182233411188
0.005376995193150051
0.005419964990461743
0.005453160013462495
0.005474073459695771
0.0054811990266998385
0.005474034712125061
0.005453084098477539
0.005419855045850743
0.0053768559004956345
0.00634240856518696
0.007424469322148707
0.008569194596419137
0.009771879776662119
0.011027860594831107
0.012332518770685955
0.0136812879067905
0.015069659612299413
0.01649318983408696
0.006342220653740628
0.007424252781986479
0.008568946901971514
0.009771599029663394
0.011027545524420162
0.012332168733352529
0.013680902886161148
0.015069240218759945
0.016492737304241452
0.018053640704819695
0.01815180395525224
0.018230286591685047
0.01828071106952104
0.018298044981691474
0.018280610179675683
0.01823008588361373
0.018151505513652442
0.01805324759069362
0.01942848970935473
0.020932822097088858
0.022457449683283844
0.023999417997419118
0.025555878111994276
0.027124093883732197
0.028701449263030143
0.03028545565881326
0.031873759346508296
0.019427974546857723
0.020932273578820326
0.022456866485790674
0.02399879946949376
0.025555224272905963
0.027123405421293184
0.028700727531497047
0.03028470267662645
0.031872977793875636
0.03361752748286824
0.03376586050255802
0.033887376489755545
0.033966500550115936
0.0339938761983852
0.03396637961828692
0.03388712456787251
0.0337654574044023
0.03361694284737263

