# vtk DataFile Version 2.0
mesh vtk view
ASCII
DATASET UNSTRUCTURED_GRID
POINTS 89 double
0.0 0.0 0.0
5.0 0.0 0.0
-4.167544527993545e-14 1.9999999999999976 -0.3837720089537659
4.99999999999996 2.0 0.38373541507024805
-7.141766420823684e-14 3.9999999999999964 -0.9472647388391199
4.99999999999993 4.0 0.9472750204588145
-8.898940768922445e-14 5.9999999999999964 -1.310745339993559
4.999999999999909 6.0 1.310913159767221
-8.908736157006228e-16 0.1999999999996281 -0.006271195514378847
-3.324767668378871e-15 0.39999999999911334 -0.02399869247075404
-6.9549693364807144e-15 0.5999999999985294 -0.051553956921297814
-1.1466531919078216e-14 0.7999999999979452 -0.08731028892575522
-1.6561042252803174e-14 0.999999999997383 -0.12964465572553163
-2.1995981090039156e-14 1.1999999999978888 -0.1769400802586396
-2.7460738928017335e-14 1.3999999999984163 -0.22758847517174985
-3.2704101261244373e-14 1.599999999998943 -0.27999381290819997
-3.7517536916447225e-14 1.7999999999994698 -0.33257552305467963
4.999999999999999 0.1999999999996283 0.006270272661401143
4.999999999999997 0.39999999999911384 0.023995283224297784
4.999999999999994 0.5999999999985302 0.05154690174554952
4.999999999999989 0.7999999999979464 0.08729880649027626
4.999999999999984 0.9999999999973843 0.1296283168666584
4.99999999999998 1.1999999999978903 0.1769187816481782
4.999999999999974 1.3999999999984183 0.22756241266338578
4.999999999999969 1.5999999999989452 0.27996345455409827
4.999999999999964 1.7999999999994722 0.3325415818050019
0.4999999999995525 2.0000000000000044 -0.308072326815761
0.9999999999983701 2.0000000000000067 -0.23239707743389856
1.49999999999691 2.0000000000000053 -0.15590942827853804
1.9999999999954663 2.0000000000000018 -0.0783868255017665
2.4999999999961573 1.9999999999999976 -1.8603607028820857e-05
2.9999999999969185 1.999999999999993 0.0783497407462692
3.499999999997678 1.9999999999999898 0.15587266175075934
3.999999999998439 1.9999999999999893 0.2323606777600418
4.499999999999199 1.9999999999999927 0.3080360982618112
-4.5450518417821383e-14 2.1999999999999975 -0.43634583956849793
-4.926839127962975e-14 2.3999999999999972 -0.4931755913837447
-5.286992337118875e-14 2.5999999999999974 -0.5529128113202519
-5.642804658761025e-14 2.799999999999997 -0.6142425089591534
-5.97259909734929e-14 2.999999999999997 -0.6758871748785533
-6.27614609685926e-14 3.199999999999997 -0.7366109075604254
-6.548788910666486e-14 3.399999999999997 -0.795223562454322
-6.785076492959539e-14 3.599999999999997 -0.8505848396019642
-6.986545827963069e-14 3.7999999999999963 -0.9016082293236134
4.999999999999956 2.2 0.43630770754530573
4.999999999999952 2.4 0.4931371707622332
4.999999999999949 2.6 0.5528754525013794
4.999999999999946 2.8000000000000003 0.6142076340869917
4.999999999999942 3.0000000000000004 0.6758562487971733
4.99999999999994 3.2000000000000006 0.7365854089398672
4.999999999999937 3.4000000000000004 0.7952049551842572
4.999999999999934 3.6 0.8505745445525955
4.9999999999999325 3.8 0.9016075965723777
0.4999999999995229 3.999999999999998 -0.7840275369757043
0.9999999999983407 3.9999999999999964 -0.6052091615162386
1.4999999999968807 3.9999999999999933 -0.41252868126943687
1.9999999999954372 3.9999999999999907 -0.2092996936166606
2.4999999999961284 3.999999999999988 7.78103913092656e-05
2.99999999999689 3.9999999999999867 0.20944911732510915
3.499999999997649 3.9999999999999876 0.41265971681502234
3.9999999999984097 3.9999999999999902 0.6053102106857365
4.4999999999991696 3.9999999999999947 0.7840879358786839
-7.29191283763824e-14 4.199999999999997 -0.9902533654121137
-7.458215816897164e-14 4.399999999999997 -1.0334009482993585
-7.640873340644007e-14 4.599999999999996 -1.0759662202195899
-7.829269950195141e-14 4.799999999999996 -1.117277878867866
-8.036104426479144e-14 4.9999999999999964 -1.1567374554571939
-8.238114411460603e-14 5.199999999999997 -1.1938220998373592
-8.432321105853993e-14 5.399999999999997 -1.2280872417262825
-8.614818599595442e-14 5.599999999999996 -1.259169092706575
-8.766034903065334e-14 5.799999999999996 -1.286786958936922
4.999999999999928 4.2 0.9902757046521766
4.999999999999925 4.4 1.033436418342456
4.999999999999924 4.6 1.0760158229831283
4.999999999999922 4.8 1.117342530564505
4.999999999999919 5.0 1.1568179731106063
4.999999999999917 5.2 1.193919188815022
4.999999999999916 5.4 1.2282014843443474
4.999999999999914 5.6 1.259300937954367
4.999999999999911 5.8 1.2869367133602707
0.49999999999950534 5.999999999999999 -1.091561654332441
0.9999999999983228 5.999999999999999 -0.8463598309751836
1.4999999999968625 5.999999999999998 -0.5786000869053691
1.9999999999954183 5.9999999999999964 -0.29397112261052627
2.499999999996109 5.999999999999995 0.00031553325651447937
2.99999999999687 5.999999999999993 0.29458208104099726
3.499999999997629 5.999999999999993 0.5791515467385168
3.9999999999983893 5.999999999999994 0.8468148258253974
4.499999999999149 5.9999999999999964 1.091887084134087

CELLS 90 270
2 0 8
2 8 9
2 9 10
2 10 11
2 11 12
2 12 13
2 13 14
2 14 15
2 15 16
2 16 2
2 1 17
2 17 18
2 18 19
2 19 20
2 20 21
2 21 22
2 22 23
2 23 24
2 24 25
2 25 3
2 2 26
2 26 27
2 27 28
2 28 29
2 29 30
2 30 31
2 31 32
2 32 33
2 33 34
2 34 3
2 2 35
2 35 36
2 36 37
2 37 38
2 38 39
2 39 40
2 40 41
2 41 42
2 42 43
2 43 4
2 3 44
2 44 45
2 45 46
2 46 47
2 47 48
2 48 49
2 49 50
2 50 51
2 51 52
2 52 5
2 4 53
2 53 54
2 54 55
2 55 56
2 56 57
2 57 58
2 58 59
2 59 60
2 60 61
2 61 5
2 4 62
2 62 63
2 63 64
2 64 65
2 65 66
2 66 67
2 67 68
2 68 69
2 69 70
2 70 6
2 5 71
2 71 72
2 72 73
2 73 74
2 74 75
2 75 76
2 76 77
2 77 78
2 78 79
2 79 7
2 6 80
2 80 81
2 81 82
2 82 83
2 83 84
2 84 85
2 85 86
2 86 87
2 87 88
2 88 7

CELL_TYPES 90
3
3
3
3
3
3
3
3
3
3
3
3
3
3
3
3
3
3
3
3
3
3
3
3
3
3
3
3
3
3
3
3
3
3
3
3
3
3
3
3
3
3
3
3
3
3
3
3
3
3
3
3
3
3
3
3
3
3
3
3
3
3
3
3
3
3
3
3
3
3
3
3
3
3
3
3
3
3
3
3
3
3
3
3
3
3
3
3
3
3

POINT_DATA 89
SCALARS MODE2_15.7142_Hz float 1
LOOKUP_TABLE default
0.0
0.0
0.011193350261151508
0.011192282939548904
0.02762855488280767
0.027628854763382095
0.038230072416478814
0.03823496715987729
0.0001829098691693831
0.0006999618637303263
0.0015036570768711865
0.002546550093667861
0.00378130245866134
0.00516075234087699
0.006637997192509372
0.0081664862098225
0.009700119422428159
0.00018288295262420005
0.0006998624273753522
0.0015034513009118612
0.002546215189299725
0.0037808259086108712
0.0051601311314051984
0.0066372370360154205
0.008165600757827868
0.009699129469312557
0.008985442865459698
0.006778248091822043
0.004547358324790694
0.00228628241046819
5.426052050072751e-07
0.0022852007717661855
0.004546285967730481
0.006777186434667887
0.00898438619930283
0.012726753654081192
0.014384288082025892
0.016126623663507353
0.017915406511308647
0.01971337593395781
0.021484484803845745
0.023194020571584397
0.024808724488390627
0.026296906688605397
0.01272564147007142
0.014383167480565139
0.016125534031290235
0.017914389327537264
0.019712473923250894
0.021483741094079467
0.02319347785954084
0.024808424216117377
0.026296888233361022
0.022867469828458047
0.017651933877556963
0.012032086537025245
0.006104574397152602
2.2694697465202474e-06
0.0061089325886490185
0.012035908407104822
0.017654881145000655
0.022869231463128286
0.028882389824519992
0.030140860992064627
0.03138234808973805
0.03258727146697943
0.03373817578416816
0.03481981124525632
0.03581921121701658
0.03672576520394178
0.037531286302326904
0.028883041385688493
0.030141895534988306
0.031383794837007914
0.032589157141464736
0.03374052421572603
0.03482264300710482
0.03582254329337681
0.03672961069033571
0.03753565413967457
0.03183721491802954
0.024685495070109528
0.016875835868073272
0.008574157742807018
9.20305331500565e-06
0.008591977363695755
0.016891920113206744
0.024698765753240762
0.03184670662057755

