# vtk DataFile Version 2.0
mesh vtk view
ASCII
DATASET UNSTRUCTURED_GRID
POINTS 89 double
0.0 0.0 0.0
5.0 0.0 0.0
-0.4331386078055584 1.9825664952362274 4.5387629276295055e-14
4.566861393459199 2.017433695079251 -3.7854495252599506e-14
-1.0830281102326778 3.9724350292508146 1.6435767324292377e-13
3.916971680327858 4.027566002748301 -1.2020135356774404e-13
-1.5375432088590932 5.968854491230385 2.595674370349927e-13
3.4624569364487794 6.03114679256956 -1.43762790120719e-13
-0.007315268466793393 0.1982558965112587 5.909337047388064e-16
-0.027932355396290444 0.39651185538519285 2.167997243673886e-15
-0.059858527252849264 0.5947679159864189 4.569576209237007e-15
-0.1011020871686681 0.7930241176786834 7.586223310376272e-15
-0.1496733992810251 0.991280499825396 1.1315058933369437e-14
-0.20358621829226992 1.189537101791727 1.64226699334449e-14
-0.26085925909294266 1.3877939629429135 2.2167713395408366e-14
-0.3195179414062556 1.5860511226490066 2.8697104529272414e-14
-0.377596244571118 1.784308620285706 3.6939157743193746e-14
4.992684731380046 0.20174401425067678 -5.457761044816816e-16
4.972067643122411 0.40348800614171976 -2.0430207886568413e-15
4.940141469227847 0.6052319303174952 -4.3539331655848034e-15
4.898897907028862 0.8069757414256149 -7.473053131009712e-15
4.850326592852253 1.0087193941195263 -1.125382185113945e-14
4.796413772458872 1.2104628430626856 -1.573216034073194e-14
4.739140731420269 1.4122060429288683 -2.0530727940706835e-14
4.680482050474003 1.613948948409026 -2.5945429428881638e-14
4.622403750740436 1.8156915142141612 -3.16349810314019e-14
0.06656509939962268 2.0802321500379786 1.1302827398798521e-13
0.5663346028187479 2.1153245541958543 2.0014336133868483e-13
1.0661699374421187 2.103259953365143 2.413913471732613e-13
1.5660711282665365 2.0595920973829798 2.4511050125729417e-13
2.066038190293535 2.000000120220836 2.112642260213631e-13
2.566071128521093 1.9404081407508982 1.5708188560834775e-13
3.066169937949056 1.8967402779985798 1.0569335319756572e-13
3.5663346035779764 1.8846756663929047 5.056110611383851e-14
4.066565100411304 1.9197680565234427 -4.444649962317908e-15
-0.4904632571333368 2.1815510250493872 5.5611685346194116e-14
-0.5540210055142838 2.380536012340685 6.677050357984358e-14
-0.6220765426183789 2.579521479154652 7.87473505174174e-14
-0.6929127540289799 2.7785074475515494 9.13901156238898e-14
-0.7648329319884636 2.9774939396101505 1.0510274408624913e-13
-0.8361630774472255 3.176480977430659 1.179239846377421e-13
-0.9052542378634882 3.3754685831376783 1.3123638309214487e-13
-0.9704848259455794 3.574456778883159 1.4275728987826496e-13
-1.030262865348559 3.7734455868492236 1.530419950437761e-13
4.509536752378816 2.218449226416139 -4.5046452609631634e-14
4.445979012746646 2.4194643190169196 -5.3380957748070296e-14
4.377923482264058 2.620478945617241 -6.253052451650998e-14
4.307087272717703 2.821493078991444 -7.204325497599254e-14
4.235167089233963 3.022506691956547 -8.157635257143312e-14
4.163836928229879 3.2235197573763568 -9.039532522404153e-14
4.094745739613037 3.4245322481656357 -9.929375593470652e-14
4.029515108038655 3.6255441372942414 -1.0737504881586738e-13
3.9697370072118945 3.826555397791152 -1.1445999152848133e-13
-0.5837689877515959 4.061859372657719 8.30339763575108e-14
-0.08434534714659392 4.095521477068819 -2.2727083237893094e-14
0.4152428990752426 4.0871720713220245 -9.331698617522777e-14
0.9149958134191853 4.050675147208668 -1.2775733869848967e-13
1.4149134333954119 4.000000232761679 -1.421000693926242e-13
1.9149957715072972 3.949325340328919 -1.428383756455622e-13
2.4152428152556915 3.912828482560679 -1.3064213385466263e-13
2.915654527138904 3.904479188426091 -1.1921008798362117e-13
3.4162308446583127 3.938141451370787 -1.13424488911574e-13
-1.1328833966263874 4.172073824997917 1.768703801104662e-13
-1.1842630130506715 4.37171330133584 1.88347199043452e-13
-1.2361569668585355 4.571353465502871 1.9945470322140838e-13
-1.2875940626437097 4.770994324778934 2.1031603057029638e-13
-1.3376435916257594 4.9706358864879405 2.2036366129365164e-13
-1.385417006506106 5.170278158000126 2.296884722628609e-13
-1.4300695513266901 5.369921146734322 2.3834470457563403e-13
-1.4708018172435788 5.569564860160114 2.463910502001713e-13
-1.5068611965614365 5.769209305799837 2.5407804272889223e-13
3.867116287577403 4.227927245506302 -1.2443227805520846e-13
3.8157365503785767 4.428287812240751 -1.2757174422700857e-13
3.7638424786402664 4.62864769267547 -1.3048108166691184e-13
3.7124052850135767 4.829006876609286 -1.3290373007234184e-13
3.66235569550301 5.0293653539188155 -1.3519019219949037e-13
3.6145822746073923 5.229723114561228 -1.3726158078107721e-13
3.5699297954593767 5.430080148576933 -1.3975506626692384e-13
3.5291976840517867 5.630436446092163 -1.41527736117179e-13
3.4931385652054354 5.83079199732139 -1.4262843361987046e-13
-1.0385949665439576 6.020646984631369 1.9288201744835438e-13
-0.5394131626851882 6.042146583023549 1.1614784193309542e-13
-0.0399976730786098 6.040840171376525 3.7900136215502223e-14
0.45965159100582476 6.024263698772516 -2.536853344587957e-14
0.9595346828125906 6.00000211389613 -5.935240138554809e-14
1.4596516200865017 5.975740406120862 -7.730179715051154e-14
1.960002385076196 5.959163567498749 -9.128048289991188e-14
2.460586924534904 5.957856554593644 -1.0484892215096898e-13
2.961405149728461 5.979355329100711 -1.2369813939770955e-13

CELLS 90 270
2 0 8
2 8 9
2 9 10
2 10 11
2 11 12
2 12 13
2 13 14
2 14 15
2 15 16
2 16 2
2 1 17
2 17 18
2 18 19
2 19 20
2 20 21
2 21 22
2 22 23
2 23 24
2 24 25
2 25 3
2 2 26
2 26 27
2 27 28
2 28 29
2 29 30
2 30 31
2 31 32
2 32 33
2 33 34
2 34 3
2 2 35
2 35 36
2 36 37
2 37 38
2 38 39
2 39 40
2 40 41
2 41 42
2 42 43
2 43 4
2 3 44
2 44 45
2 45 46
2 46 47
2 47 48
2 48 49
2 49 50
2 50 51
2 51 52
2 52 5
2 4 53
2 53 54
2 54 55
2 55 56
2 56 57
2 57 58
2 58 59
2 59 60
2 60 61
2 61 5
2 4 62
2 62 63
2 63 64
2 64 65
2 65 66
2 66 67
2 67 68
2 68 69
2 69 70
2 70 6
2 5 71
2 71 72
2 72 73
2 73 74
2 74 75
2 75 76
2 76 77
2 77 78
2 78 79
2 79 7
2 6 80
2 80 81
2 81 82
2 82 83
2 83 84
2 84 85
2 85 86
2 86 87
2 87 88
2 88 7

CELL_TYPES 90
3
3
3
3
3
3
3
3
3
3
3
3
3
3
3
3
3
3
3
3
3
3
3
3
3
3
3
3
3
3
3
3
3
3
3
3
3
3
3
3
3
3
3
3
3
3
3
3
3
3
3
3
3
3
3
3
3
3
3
3
3
3
3
3
3
3
3
3
3
3
3
3
3
3
3
3
3
3
3
3
3
3
3
3
3
3
3
3
3
3

POINT_DATA 89
SCALARS MODE3_19.7959_Hz float 1
LOOKUP_TABLE default
0.0
0.0
0.00842895877809963
0.008428958902352856
0.02106569970441862
0.021065704286109887
0.029902806668902354
0.02990280434962054
0.0001462282334823463
0.0005473476866237185
0.001168353547044403
0.001970547906736685
0.0029152505168432374
0.003963845290340309
0.005077813092024696
0.006218766411933759
0.0073484860403609025
0.00014622783396988658
0.0005473473815682226
0.0011683533549960027
0.0019705478307199585
0.00291525054962212
0.003963845414911769
0.005077813281627815
0.006218766629930736
0.0073484862400344094
0.008571075181112836
0.008725453243587611
0.008671244302165516
0.008516699602084227
0.00843814629977435
0.008516698967225633
0.008671243250905862
0.008725452127001534
0.008571074430703311
0.00954353005921587
0.010779276795442492
0.012102485186295161
0.013479783305155556
0.014878188758173245
0.01626515674651195
0.01760862764069545
0.01887707339262975
0.020039542068053112
0.009543530058183902
0.01077927666680932
0.012102484974485603
0.013479783102751934
0.014878188706908527
0.016265157037895515
0.01760862851637113
0.018877075144551638
0.020039545038538092
0.02110758527557035
0.02116614355550101
0.02116049595874378
0.021120301493016327
0.021098905461682457
0.021120301864835923
0.021160496720647588
0.02116614485500447
0.021107587615908564
0.022034979980370288
0.023033904165733254
0.02404283870657604
0.025042903027371482
0.02601600273781094
0.026944862514024955
0.027813058052832434
0.02860504653685194
0.029306195081890085
0.02203498663195085
0.02303391316924055
0.02404285000739862
0.02504291623471192
0.02601601712520432
0.02694487701989406
0.02781307128105337
0.028605056757295605
0.029306200230894676
0.029919817960940315
0.029944250125026602
0.029954927159314925
0.029954934703888506
0.02995349227859837
0.02995493288150151
0.02995492410171848
0.029944246760073127
0.029919815096645035

