# vtk DataFile Version 2.0
mesh vtk view
ASCII
DATASET UNSTRUCTURED_GRID
POINTS 861 double
0.0 0.0 0.0
2.0 0.0 0.0
2.0 1.0 0.0
0.0 1.0 0.0
0.04999999996234715 -3.30620723032259e-11 0.0
0.0999999999371622 -6.235002111901555e-11 0.0
0.14999999991869406 -9.296340361611172e-11 0.0
0.19999999990488404 -1.2395080356859977e-10 0.0
0.24999999989491825 -1.5509141362056344e-10 0.0
0.29999999988825665 -1.859821428015205e-10 0.0
0.34999999988460456 -2.162462708137358e-10 0.0
0.39999999988367757 -2.455220360963591e-10 0.0
0.4499999998852136 -2.7347526088218435e-10 0.0
0.4999999998889615 -2.998037363644064e-10 0.0
0.5499999998946756 -3.242412940547322e-10 0.0
0.5999999999021137 -3.465603919545267e-10 0.0
0.6499999999110379 -3.6657315416209044e-10 0.0
0.6999999999212183 -3.8413060816295395e-10 0.0
0.7499999999324354 -3.991200871743144e-10 0.0
0.7999999999444828 -4.1146098505971653e-10 0.0
0.8499999999571697 -4.210992893400646e-10 0.0
0.8999999999703194 -4.280015226391204e-10 0.0
0.9499999999837695 -4.321488561211675e-10 0.0
0.9999999999973885 -4.335321848752397e-10 0.0
1.0500000000112413 -4.321488561211464e-10 0.0
1.100000000024969 -4.2800152263905633e-10 0.0
1.1500000000383965 -4.210992893399442e-10 0.0
1.200000000051361 -4.1146098505953455e-10 0.0
1.250000000063685 -3.991200871740724e-10 0.0
1.3000000000751801 -3.841306081626586e-10 0.0
1.350000000085638 -3.6657315416174897e-10 0.0
1.4000000000948392 -3.4656039195414773e-10 0.0
1.4500000001025548 -3.2424129405432627e-10 0.0
1.5000000001085458 -2.9980373636398405e-10 0.0
1.5500000001125713 -2.7347526088175375e-10 0.0
1.600000000114385 -2.4552203609592876e-10 0.0
1.650000000113735 -2.16246270813314e-10 0.0
1.7000000001103606 -1.8598214280111486e-10 0.0
1.7500000001039713 -1.550914136201854e-10 0.0
1.8000000000942193 -1.2395080356829461e-10 0.0
1.8500000000806167 -9.296340361589213e-11 0.0
1.900000000062374 -6.235002111887455e-11 0.0
1.9500000000374276 -3.3062072303154774e-11 0.0
2.0 0.04999999999989965 0.0
2.0 0.09999999999981467 0.0
2.0 0.1499999999997036 0.0
2.0 0.1999999999995579 0.0
2.0 0.2499999999994121 0.0
2.0 0.2999999999992664 0.0
2.0 0.3499999999991206 0.0
2.0 0.3999999999989749 0.0
2.0 0.4499999999988292 0.0
2.0 0.4999999999986943 0.0
2.0 0.5499999999988151 0.0
2.0 0.5999999999989468 0.0
2.0 0.6499999999990784 0.0
2.0 0.69999999999921 0.0
2.0 0.7499999999993417 0.0
2.0 0.7999999999994734 0.0
2.0 0.8499999999996051 0.0
2.0 0.8999999999997368 0.0
2.0 0.9499999999998684 0.0
1.9499999999603723 0.9999999999648436 0.0
1.8999999999342108 0.9999999999339558 0.0
1.8499999999153007 0.9999999999021205 0.0
1.7999999999014202 0.9999999998703591 0.0
1.7499999998917781 0.9999999998389151 0.0
1.6999999998863142 0.9999999998082406 0.0
1.6499999998842758 0.9999999997787875 0.0
1.5999999998853625 0.9999999997510248 0.0
1.5499999998893443 0.9999999997254323 0.0
1.4999999998960025 0.9999999997025022 0.0
1.4499999999051116 0.9999999996827454 0.0
1.3999999999164368 0.9999999996667046 0.0
1.3499999999297283 0.9999999996549793 0.0
1.2999999999447265 0.9999999996482781 0.0
1.2499999999611506 0.9999999996475089 0.0
1.199999999978719 0.9999999996540704 0.0
1.1499999999970107 0.9999999996700326 0.0
1.1000000000156605 0.9999999997021575 0.0
1.0500000000281366 0.9999999997536091 0.0
1.000000000004117 0.9999999999567192 0.0
0.9499999999796301 0.9999999997536091 0.0
0.8999999999915514 0.9999999997021575 0.0
0.850000000009647 0.9999999996700326 0.0
0.8000000000273837 0.9999999996540704 0.0
0.7500000000443968 0.9999999996475089 0.0
0.7000000000602662 0.9999999996482781 0.0
0.650000000074709 0.9999999996549793 0.0
0.6000000000874468 0.9999999996667046 0.0
0.5500000000982168 0.9999999996827454 0.0
0.500000000106771 0.9999999997025022 0.0
0.4500000001128742 0.9999999997254323 0.0
0.400000000116302 0.9999999997510248 0.0
0.3500000001168335 0.9999999997787875 0.0
0.3000000001142401 0.9999999998082406 0.0
0.25000000010826395 0.9999999998389151 0.0
0.20000000009857874 0.9999999998703591 0.0
0.15000000008469866 0.9999999999021205 0.0
0.10000000006578927 0.9999999999339558 0.0
0.05000000003962776 0.9999999999648436 0.0
0.0 0.9499999999997918 0.0
0.0 0.8999999999995836 0.0
0.0 0.8499999999996529 0.0
0.0 0.7999999999999998 0.0
0.0 0.7500000000003466 0.0
0.0 0.7000000000006934 0.0
0.0 0.6500000000010401 0.0
0.0 0.6000000000013869 0.0
0.0 0.5500000000017335 0.0
0.0 0.5000000000020587 0.0
0.0 0.4500000000018723 0.0
0.0 0.4000000000016644 0.0
0.0 0.3500000000014564 0.0
0.0 0.3000000000012483 0.0
0.0 0.2500000000010403 0.0
0.0 0.2000000000008322 0.0
0.0 0.1500000000006241 0.0
0.0 0.100000000000416 0.0
0.0 0.05000000000020799 0.0
0.04999999998076067 0.04999999997519369 0.0
0.04999999998713214 0.09999999997712243 0.0
0.049999999991104965 0.14999999997735972 0.0
0.04999999999378163 0.19999999997707393 0.0
0.049999999995747245 0.24999999997662947 0.0
0.049999999997256704 0.29999999997617827 0.0
0.049999999998460706 0.34999999997578873 0.0
0.04999999999945628 0.3999999999754954 0.0
0.05000000000031374 0.44999999997531787 0.0
0.050000000001090006 0.49999999997524724 0.0
0.050000000001836846 0.5499999999748213 0.0
0.0500000000026077 0.5999999999745179 0.0
0.05000000000346447 0.6499999999743605 0.0
0.05000000000448647 0.6999999999743449 0.0
0.050000000005784556 0.7499999999744492 0.0
0.05000000000752995 0.7999999999746134 0.0
0.050000000010008226 0.8499999999746882 0.0
0.050000000013860436 0.8999999999745685 0.0
0.05000000002028582 0.9499999999730194 0.0
0.09999999996086231 0.049999999943822905 0.0
0.0999999999744044 0.0999999999478353 0.0
0.09999999998244252 0.1499999999492541 0.0
0.09999999998791385 0.1999999999494539 0.0
0.09999999999186883 0.24999999994910904 0.0
0.0999999999948693 0.29999999994855975 0.0
0.0999999999972328 0.3499999999479841 0.0
0.09999999999916465 0.39999999994747953 0.0
0.10000000000081091 0.449999999947102 0.0
0.10000000000228841 0.49999999994686445 0.0
0.10000000000370236 0.5499999999463321 0.0
0.10000000000516147 0.5999999999459644 0.0
0.10000000000679278 0.6499999999457735 0.0
0.10000000000876073 0.6999999999457258 0.0
0.1000000000112996 0.749999999945742 0.0
0.10000000001477023 0.7999999999456552 0.0
0.10000000001980104 0.8499999999451204 0.0
0.10000000002754882 0.8999999999436958 0.0
0.10000000004119403 0.9499999999399141 0.0
0.14999999994469485 0.049999999912124456 0.0
0.14999999996232247 0.09999999991595651 0.0
0.14999999997411845 0.14999999991816637 0.0
0.1499999999822832 0.19999999991903805 0.0
0.1499999999882204 0.24999999991912872 0.0
0.14999999999270378 0.29999999991881576 0.0
0.1499999999962096 0.34999999991833725 0.0
0.1499999999990506 0.39999999991783824 0.0
0.15000000000145125 0.4499999999174071 0.0
0.15000000000359037 0.49999999991707594 0.0
0.15000000000562858 0.5499999999164364 0.0
0.15000000000773178 0.5999999999159267 0.0
0.15000000001009375 0.6499999999155427 0.0
0.150000000012967 0.6999999999152233 0.0
0.1500000000167084 0.7499999999148446 0.0
0.15000000002186054 0.7999999999141814 0.0
0.15000000002929573 0.8499999999128525 0.0
0.15000000004057054 0.8999999999105331 0.0
0.15000000005810707 0.949999999906916 0.0
0.19999999993207362 0.04999999987997657 0.0
0.19999999995211526 0.09999999988333613 0.0
0.19999999996657974 0.14999999988567136 0.0
0.1999999999770664 0.1999999998869883 0.0
0.19999999998482706 0.24999999988752605 0.0
0.19999999999072657 0.29999999988756637 0.0
0.1999999999953402 0.34999999988732916 0.0
0.19999999999906728 0.39999999988696805 0.0
0.20000000000220258 0.4499999998865835 0.0
0.20000000000498325 0.4999999998862179 0.0
0.2000000000076237 0.5499999998854835 0.0
0.2000000000103443 0.5999999998847979 0.0
0.2000000000134019 0.6499999998841477 0.0
0.20000000001712676 0.6999999998834611 0.0
0.20000000002197574 0.7499999998826092 0.0
0.20000000002860965 0.7999999998813898 0.0
0.20000000003801627 0.8499999998795283 0.0
0.2000000000516155 0.8999999998770375 0.0
0.20000000007121155 0.9499999998739092 0.0
0.24999999992260777 0.049999999847818964 0.0
0.24999999994402278 0.09999999985056884 0.0
0.24999999996026398 0.1499999998527609 0.0
0.24999999997251096 0.19999999985425534 0.0
0.24999999998180802 0.24999999985511714 0.0
0.2499999999889742 0.29999999985549247 0.0
0.24999999999461797 0.34999999985553654 0.0
0.24999999999918984 0.39999999985537554 0.0
0.2500000000030359 0.4499999998550997 0.0
0.2500000000064414 0.4999999998547477 0.0
0.2500000000096663 0.5499999998539485 0.0
0.25000000001297706 0.599999999853099 0.0
0.2500000000166806 0.6499999998521871 0.0
0.25000000002116374 0.699999999851151 0.0
0.2500000000269424 0.749999999849893 0.0
0.2500000000347243 0.7999999998482843 0.0
0.2500000000454663 0.8499999998462016 0.0
0.2500000000603918 0.899999999843844 0.0
0.2500000000808881 0.9499999998413639 0.0
0.2999999999159247 0.049999999816001534 0.0
0.2999999999380004 0.09999999981813275 0.0
0.299999999955321 0.14999999982004836 0.0
0.2999999999687943 0.1999999998215542 0.0
0.2999999999792765 0.24999999982260684 0.0
0.299999999987499 0.29999999982324915 0.0
0.29999999999405075 0.34999999982355967 0.0
0.29999999999939786 0.3999999998236188 0.0
0.300000000003915 0.4499999998234894 0.0
0.3000000000079199 0.4999999998231965 0.0
0.30000000001170385 0.5499999998223793 0.0
0.30000000001556537 0.5999999998214159 0.0
0.3000000000198424 0.6499999998203021 0.0
0.30000000002494986 0.6999999998190006 0.0
0.30000000003142185 0.7499999998174628 0.0
0.30000000003995264 0.7999999998156465 0.0
0.3000000000514219 0.8499999998135465 0.0
0.3000000000668788 0.8999999998114826 0.0
0.3000000000874586 0.9499999998096722 0.0
0.34999999991180986 0.0499999997848947 0.0
0.349999999934002 0.09999999978642911 0.0
0.34999999995185044 0.14999999978801792 0.0
0.34999999996607745 0.19999999978943944 0.0
0.34999999997738884 0.2499999997905873 0.0
0.34999999998642145 0.2999999997914288 0.0
0.3499999999937205 0.34999999979197655 0.0
0.3499999999997408 0.39999999979226003 0.0
0.35000000000486364 0.449999999792308 0.0
0.35000000000942083 0.49999999979212373 0.0
0.35000000001371967 0.5499999997913523 0.0
[...]
POINT_DATA 861
SCALARS DISPL_step0 float 1
LOOKUP_TABLE default
0.0
0.0
0.0
0.0
1.6679153299226793e-11
2.945982423444123e-11
4.110293829384743e-11
5.2004769877555564e-11
6.236151325509916e-11
7.222172762142598e-11
8.158749310366046e-11
9.043538137911699e-11
9.873040315104064e-11
1.0643312663416583e-10
1.1350428676635946e-10
1.1990771927395765e-10
1.2561216460628286e-10
1.305921809615198e-10
1.348283287239082e-10
1.3830676842036955e-10
1.4101842918308284e-10
1.429579288345915e-10
1.4412244416382144e-10
1.4451072829174658e-10
1.4412244416381953e-10
1.4295792883458125e-10
1.4101842918306002e-10
1.3830676842033212e-10
1.348283287238559e-10
1.3059218096145382e-10
1.256121646062045e-10
1.199077192738685e-10
1.135042867662618e-10
1.0643312663406202e-10
9.873040315093241e-11
9.043538137900615e-11
8.158749310354879e-11
7.222172762131497e-11
6.23615132549915e-11
5.2004769877465486e-11
4.110293829377985e-11
2.945982423439619e-11
1.667915329920595e-11
0.0
0.0
0.0
0.0
0.0
0.0
0.0
0.0
0.0
0.0
0.0
0.0
0.0
0.0
0.0
0.0
0.0
0.0
0.0
1.7606456558368295e-11
3.0975786357369725e-11
4.301019421336724e-11
5.4120410660130105e-11
6.45025989708734e-11
7.419105566944636e-11
8.316440759507949e-11
9.136640885698528e-11
9.871890469493318e-11
1.0512693431741332e-10
1.1048012443557267e-10
1.1465035646911947e-10
1.1748470528050815e-10
1.1878913186475178e-10
1.1829988116280863e-10
1.1558831944790573e-10
1.1000798578882563e-10
9.936402230307532e-11
8.252951178604764e-11
1.442695404226632e-11
8.252951178673331e-11
9.936402230390559e-11
1.1000798578979084e-10
1.1558831944897614e-10
1.1829988116396033e-10
1.1878913186595562e-10
1.1748470528173476e-10
1.1465035647033871e-10
1.104801244367551e-10
1.0512693431853075e-10
9.871890469595935e-11
9.136640885789626e-11
8.316440759585299e-11
7.419105567006223e-11
6.450259897132146e-11
5.412041066049488e-11
4.301019421365366e-11
3.0975786357573024e-11
1.7606456558480943e-11
0.0
0.0
0.0
0.0
0.0
0.0
0.0
0.0
0.0
0.0
0.0
0.0
0.0
0.0
0.0
0.0
0.0
0.0
0.0
1.0501015622107861e-11
8.855788131514388e-12
8.289326179308542e-12
8.173051061388487e-12
8.245025822161117e-12
8.390025421449643e-12
8.552073653672238e-12
8.70263928922534e-12
8.826607594194617e-12
8.915748295049532e-12
8.965772443583143e-12
8.975433752261753e-12
8.947283823737804e-12
8.890517054549085e-12
8.827535931632173e-12
8.808472299578518e-12
8.944930729498739e-12
9.505381276527428e-12
1.1158355119449067e-11
2.2842531404536255e-11
1.9463933793405854e-11
1.806971310318576e-11
1.7567015544637903e-11
1.7492083998032574e-11
1.7612520856704238e-11
1.780932755633485e-11
1.8019184900286137e-11
1.820770897739654e-11
1.8356441728625622e-11
1.8456832355759984e-11
1.8508399050954496e-11
1.8520335491334612e-11
1.8517416264892787e-11
1.8553248937408505e-11
1.8738207141795475e-11
1.9301389655483703e-11
2.0719906717517002e-11
2.4154936779561613e-11
3.461837343172592e-11
3.078631840891519e-11
2.877047664557038e-11
2.7858030761966457e-11
2.7541402727378206e-11
2.7535019580329173e-11
2.767723933758768e-11
2.7876857527408872e-11
2.808251435089106e-11
2.826650366672127e-11
2.8416837187697556e-11
2.8534722720691687e-11
2.8636665234950906e-11
2.8762160129268932e-11
2.899012117651456e-11
2.9470969835309e-11
3.0484417970890524e-11
3.2549252706193164e-11
3.641817789041921e-11
4.5971110081150365e-11
4.211447038624905e-11
3.98569662969883e-11
3.8660080142043564e-11
3.811769996407564e-11
3.795373094338554e-11
3.799699555206795e-11
3.81440401724022e-11
3.833414026279128e-11
3.85340470950803e-11
3.8729903485239696e-11
3.892445456826786e-11
3.9139005371648366e-11
3.942087128873189e-11
3.985853021043358e-11
4.0607691657826414e-11
4.193232838951664e-11
4.423734276826444e-11
4.8085672820534076e-11
5.6903305269036785e-11
5.3261656400770685e-11
5.097969619239337e-11
4.964910631186353e-11
4.894700099269074e-11
4.864163234995742e-11
4.8576618645065415e-11
4.8651912974889246e-11
4.880646580162081e-11
4.9006337361412786e-11
4.923772452190497e-11
4.9504212163947435e-11
4.982800751015001e-11
5.0255616626322806e-11
5.0868997992239254e-11
5.1803466301999695e-11
5.326986852253682e-11
5.5578868626667944e-11
5.915149643636718e-11
6.741223966784833e-11
6.410733169780404e-11
6.193702272465565e-11
6.058226653592149e-11
5.979162681946929e-11
5.937944088121035e-11
5.921590457605146e-11
5.921460668938269e-11
5.932148829406027e-11
5.950633970559509e-11
5.975729784317851e-11
6.007820111774041e-11
6.04887854702617e-11
6.10280005634405e-11
6.176103408244249e-11
6.27904497326311e-11
6.427211614316489e-11
6.643479973219585e-11
6.960040873899614e-11
7.746224531575161e-11
7.456004919427052e-11
7.258102054091297e-11
7.127659033494212e-11
7.04535296749234e-11
6.996902639675856e-11
6.972207154467088e-11
6.964468303614934e-11
6.96942436209805e-11
6.984748179357906e-11
7.009613605246855e-11
7.044429516695708e-11
7.090746702014307e-11
7.151366260054986e-11
7.230708630435283e-11
7.335554029309142e-11
7.476305415481979e-11
7.668937751027423e-11
7.937505181350515e-11
8.700385399845334e-11
8.453521915945215e-11
8.279193129295269e-11
8.158403132247584e-11
8.076718680989227e-11
8.023627079512832e-11
7.991789224992874e-11
7.976358766386125e-11
7.974419768624346e-11
7.984534375464283e-11
8.006381540145274e-11
8.04047244555791e-11
8.087946593868675e-11
8.150483919646825e-11
8.230420888410858e-11
8.331230449746044e-11
8.458605054633105e-11
8.622385714321155e-11
8.839389919982688e-11
9.598129329560551e-11
9.395360497764375e-11
9.24664947322662e-11
9.138038652201217e-11
9.059247163017272e-11
9.003030553993975e-11
8.964548285819416e-11
8.940829022762719e-11
8.930340609171284e-11
8.932634387779742e-11
8.948025331514442e-11
8.977279236726726e-11
9.021301532297442e-11
9.080866481680978e-11
9.156497367429895e-11
9.248706434134095e-11
9.358895731659708e-11
9.49123954834465e-11
9.65570126752528e-11
1.0433840476413709e-10
1.0274212153871099e-10
1.0151471381291628e-10
1.0056012351634068e-10
9.9810861123331e-11
9.922242615790146e-11
9.876825243952747e-11
9.843561463510414e-11
9.822238829111403e-11
9.813426014030567e-11
9.818188932265098e-11
9.837756170697561e-11
9.873109318583885e-11
9.924523868866007e-11
9.991180439411846e-11
1.007109910256157e-10
1.0161784157048843e-10
1.0262003941000112e-10
1.037496605057377e-10
1.1202251013473604e-10
1.108355771075571e-10
1.0985921390770856e-10
1.090345187953446e-10
1.0832369064233285e-10
1.077056463651627e-10
1.0717225043169661e-10
1.0672538540201649e-10
1.0637470281763066e-10
1.061356382900967e-10
1.0602711847883538e-10
1.060683109717711e-10
1.0627383140846619e-10
1.0664725449140293e-10
1.0717385612148334e-10
1.078154967440495e-10
1.085127651243248e-10
1.0920075420004102e-10
1.0984271385875248e-10
1.1898703802182302e-10
1.1817816055802098e-10
1.174354725731891e-10
1.1673104747819367e-10
1.1605146068953019e-10
1.1539463962996139e-10
1.1476727443984727e-10
1.1418295497720717e-10
1.1366090591968093e-10
1.132249570533759e-10
1.1290216910500945e-10
1.1272029732467123e-10
1.1270305622751383e-10
1.1286216978615933e-10
1.1318622179914815e-10
1.1362882673026387e-10
1.1410322252254332e-10
1.1449325554028987e-10
1.1468973291915363e-10
1.251931016314629e-10
1.247243672526201e-10
1.2419199303118005e-10
1.235930205047296e-10
1.229333489406296e-10
1.2222562000592239e-10
1.2148759107893053e-10
1.2074117489211836e-10
1.2001210345180562e-10
1.193299785946276e-10
1.1872823715043264e-10
1.182431969475421e-10
1.1791077406479278e-10
1.177587744915618e-10
1.1779235158234193e-10
1.1797346468589888e-10
1.182013105296288e-10
1.1831270084299756e-10
1.1811888200122975e-10
1.3061016332828612e-10
1.3043920775943396e-10
1.3009000797418105e-10
1.295788918954118e-10
1.289263639013792e-10
1.2815568196364557e-10
1.2729188153999307e-10
1.2636145385154788e-10
1.253927440795323e-10
1.2441701723004684e-10
1.2346997633617724e-10
1.2259317802143664e-10
1.2183405080734516e-10
1.212417204620034e-10
1.2085365771468626e-10
1.2066565893643995e-10
1.2059181691362074e-10
1.2043397059670353e-10
1.1991643838022322e-10
1.3521588751291785e-10
1.3529767233021744e-10
1.351025327222656e-10
1.3466094200567034e-10
1.34003776500592e-10
1.3316118791891619e-10
1.3216191286190442e-10
1.3103322897587172e-10
1.2980170728931367e-10
1.2849490006991987e-10
1.2714410018784887e-10
1.2578820863424204e-10
1.2447828728558115e-10
1.232809445205136e-10
1.2227476087505546e-10
1.2152657837612468e-10
1.2101672779430446e-10
1.2056342820724016e-10
1.1978823983048655e-10
1.3899531017027426e-10
1.3928351767050892e-10
1.39212753307965e-10
1.3882324193164168e-10
1.3815265790703093e-10
1.3723492828084873e-10
1.3609947315518244e-10
1.3477103706705696e-10
1.332702726223917e-10
1.3161532077534924e-10
1.2982480065698153e-10
1.2792287684874843e-10
1.2594734130401266e-10
1.2396155223054593e-10
1.2206916686097412e-10
1.2042129515663253e-10
1.1917918295528266e-10
1.1826673148039833e-10
1.172985984968658e-10
1.4193949997180979e-10
1.4238753213710215e-10
1.4241187034551221e-10
1.4205898116408508e-10
1.4137055943133487e-10
1.4038200800900123e-10
1.391213423030427e-10
1.3760855688565297e-10
1.358555292444195e-10
1.3386664446379229e-10
1.316405530869356e-10
1.2917392280168435e-10
1.2646891945580586e-10
1.2354778281211008e-10
1.2048080877957017e-10
1.174365024754256e-10
1.1475499056568619e-10
1.1294970012783411e-10
1.1158347961042924e-10
1.440439349621939e-10
1.4460551320898715e-10
1.4469663449067326e-10
1.4436740293761287e-10
1.436615967727542e-10
1.4261473222284013e-10
1.4125252245215489e-10
1.3958962144306106e-10
1.3762856892092292e-10
1.3535890357995014e-10
1.327565241943281e-10
1.2978364218588153e-10
1.2639030700026262e-10
1.2252020533513322e-10
1.181277744095738e-10
1.132285674199492e-10
1.0803459002050333e-10
1.0338742183405241e-10
1.0144713362936262e-10
1.453068525273011e-10
1.4593624416443665e-10
1.4606689237883268e-10
1.4575072300559766e-10
1.4503241260185862e-10
1.4394711497521402e-10
1.425185503585553e-10
1.407572227509273e-10
1.3865852651255735e-10
1.3620046271019031e-10
1.3334059702462217e-10
1.3001172347950558e-10
1.261154181385154e-10
1.2151214255256199e-10
1.1600643690420275e-10
1.0932445393648796e-10
1.0111158141157835e-10
9.099059517298653e-11
8.063246743978498e-11
1.4572783420317885e-10
1.46379770779581e-10
1.4652349529808672e-10
1.462114771781555e-10
1.4548862979009817e-10
1.4438990828931986e-10
1.4293825607842693e-10
1.411426166516247e-10
1.3899570748186786e-10
1.3647116814612854e-10
1.335195055872318e-10
1.3006186820645914e-10
1.259798309570747e-10
1.2109753843107237e-10
1.1514739051758325e-10
1.0769958598986973e-10
9.797134850885455e-11
8.435000324145206e-11
6.119734806942912e-11
1.4530685252728484e-10
1.4593624416440545e-10
1.4606689237878555e-10
1.4575072300553386e-10
1.4503241260177698e-10
1.4394711497511337e-10
1.4251855035843428e-10
1.4075722275078464e-10
1.386585265123917e-10
1.3620046270999998e-10
1.3334059702440325e-10
1.3001172347925513e-10
1.2611541813823e-10
1.21512142552237e-10
1.1600643690383141e-10
1.0932445393606021e-10
1.0111158141107782e-10
9.099059517238877e-11
8.063246743911341e-11
1.44043934962156e-10
1.4460551320892082e-10
1.446966344905771e-10
1.4436740293748502e-10
1.436615967725927e-10
1.426147322226427e-10
1.4125252245191906e-10
1.395896214427843e-10
1.3762856892060257e-10
1.3535890357958326e-10
1.3275652419390714e-10
1.2978364218540133e-10
1.263903069997174e-10
1.225202053345161e-10
1.1812777440887696e-10
1.1322856741916509e-10
1.080345900196307e-10
1.0338742183312415e-10
1.0144713362847385e-10
1.4193949997174827e-10
1.4238753213700069e-10
1.4241187034536872e-10
1.420589811638972e-10
1.4137055943109995e-10
1.4038200800871583e-10
1.391213423027039e-10
1.3760855688525745e-10
1.3585552924396364e-10
1.3386664446327204e-10
1.3164055308634145e-10
1.2917392280101093e-10
1.2646891945504806e-10
1.2354778281126377e-10
1.204808087786347e-10
1.1743650247440852e-10
1.1475499056461401e-10
1.1294970012676546e-10
1.1158347960941274e-10
1.389953101701892e-10
1.3928351767037435e-10
1.3921275330777864e-10
1.388232419314004e-10
1.381526579067316e-10
1.3723492828048795e-10
1.3609947315475668e-10
1.3477103706656238e-10
1.3327027262182436e-10
1.316153207747048e-10
1.2982480065625075e-10
1.2792287684792738e-10
1.25947341303099e-10
1.2396155222954122e-10
1.2206916685988684e-10
1.2042129515548262e-10
1.1917918295410615e-10
1.1826673147923792e-10
1.1729859849574824e-10
1.3521588751281135e-10
1.3529767233005444e-10
1.3510253272204295e-10
1.3466094200538512e-10
1.3400377650024067e-10
1.331611879184953e-10
1.3216191286141044e-10
1.3103322897530089e-10
1.2980170728866214e-10
1.2849490006918404e-10
1.2714410018702052e-10
1.2578820863331953e-10
1.2447828728456623e-10
1.23280944519413e-10
1.2227476087388345e-10
1.2152657837490536e-10
1.210167277930685e-10
1.205634282060169e-10
1.1978823982929466e-10
1.306101633281623e-10
1.3043920775924862e-10
1.3009000797393085e-10
1.2957889189509348e-10
1.2892636390098977e-10
1.2815568196318157e-10
1.2729188153945106e-10
1.2636145385092465e-10
1.2539274407882463e-10
1.2441701722925205e-10
1.2346997633528913e-10
1.2259317802045605e-10
1.2183405080627686e-10
1.2124172046085726e-10
1.2085365771347845e-10
1.206656589351922e-10
1.205918169123573e-10
1.2043397059544495e-10
1.19916438378985e-10
1.251931016313258e-10
1.2472436725241929e-10
1.241919930309115e-10
1.235930205043902e-10
1.2293334894021632e-10
1.2222562000543244e-10
1.214875910783608e-10
1.2074117489146633e-10
1.200121034510691e-10
1.1932997859380444e-10
1.1872823714951943e-10
1.182431969465415e-10
1.1791077406371126e-10
1.1775877449040997e-10
1.1779235158113492e-10
1.1797346468465482e-10
1.182013105283666e-10
1.183127008417322e-10
1.1811888199997525e-10
1.1898703802167743e-10
1.181781605578117e-10
1.174354725729117e-10
1.1673104747784506e-10
1.1605146068910745e-10
1.1539463962946224e-10
1.147672744392697e-10
1.1418295497654898e-10
1.1366090591894057e-10
1.1322495705255277e-10
1.129021691041018e-10
1.1272029732368316e-10
1.1270305622645216e-10
1.1286216978503416e-10
1.1318622179797268e-10
1.136288267290525e-10
1.1410322252131055e-10
1.1449325553904747e-10
1.1468973291791371e-10
1.1202251013458683e-10
1.1083557710734678e-10
1.0985921390743181e-10
1.0903451879499812e-10
1.0832369064191427e-10
1.0770564636467024e-10
1.0717225043112896e-10
1.067253854013724e-10
1.0637470281690932e-10
1.0613563828929803e-10
1.0602711847795986e-10
1.0606831097082299e-10
1.0627383140745234e-10
1.0664725449033219e-10
1.071738561203664e-10
1.0781549674289793e-10
1.0851276512314943e-10
1.0920075419885077e-10
1.0984271385755777e-10
1.0433840476398914e-10
1.0274212153850686e-10
1.0151471381264921e-10
1.0056012351600735e-10
9.981086112292917e-11
9.922242615743011e-11
9.876825243898595e-11
9.843561463449203e-11
9.822238829043146e-11
9.813426013955308e-11
9.818188932183035e-11
9.837756170609147e-11
9.873109318489695e-11
9.924523868766804e-11
9.991180439308447e-11
1.0071099102454857e-10
1.0161784156939697e-10
1.0262003940889141e-10
1.0374966050461693e-10
9.598129329546319e-11
9.395360497745187e-11
9.246649473201681e-11
9.138038652170135e-11
9.059247162979875e-11
9.003030553950186e-11
8.964548285769268e-11
8.94082902270626e-11
8.930340609108602e-11
8.932634387710912e-11
8.948025331439814e-11
8.977279236646699e-11
9.021301532212515e-11
9.080866481591745e-11
9.156497367336976e-11
9.248706434038157e-11
9.358895731561408e-11
9.49123954824437e-11
9.655701267423317e-11
8.70038539983207e-11
8.453521915927833e-11
8.279193129272794e-11
8.15840313221961e-11
8.07671868095553e-11
8.023627079473442e-11
7.991789224947902e-11
7.976358766335703e-11
7.974419768568617e-11
7.984534375403414e-11
8.006381540079654e-11
8.04047244548793e-11
8.087946593794744e-11
8.150483919569364e-11
8.230420888330332e-11
8.331230449662907e-11
8.458605054547889e-11
8.62238571423394e-11
8.839389919893296e-11
7.746224531563198e-11
7.45600491941195e-11
7.258102054071866e-11
7.127659033469966e-11
7.045352967463093e-11
6.996902639641686e-11
6.97220715442817e-11
6.964468303571526e-11
6.969424362050364e-11
6.984748179306154e-11
7.00961360519152e-11
7.04442951663711e-11
7.090746701952782e-11
7.151366259990804e-11
7.230708630368748e-11
7.335554029240565e-11
7.476305415411767e-11
7.668937750955367e-11
7.937505181275897e-11
6.741223966774496e-11
6.410733169767993e-11
6.193702272449641e-11
6.058226653572115e-11
5.979162681922643e-11
5.937944088092645e-11
5.921590457572963e-11
5.921460668902595e-11
5.932148829367141e-11
5.950633970517734e-11
5.975729784273684e-11
6.007820111727767e-11
6.048878546978043e-11
6.10280005629425e-11
6.176103408192941e-11
6.279044973210475e-11
6.427211614262853e-11
6.643479973164471e-11
6.960040873841723e-11
5.690330526895315e-11
5.326165640067641e-11
5.097969619227135e-11
4.964910631170693e-11
4.894700099249885e-11
4.864163234973285e-11
4.857661864481207e-11
4.865191297461108e-11
4.88064658013217e-11
4.9006337361096177e-11
4.923772452157621e-11
4.9504212163608924e-11
4.98280075098034e-11
5.025561662596927e-11
5.086899799187972e-11
5.180346630163516e-11
5.326986852216974e-11
5.557886862629209e-11
5.915149643596355e-11
4.59711100810957e-11
4.2114470386186936e-11
3.985696629689916e-11
3.866008014192069e-11
3.811769996391975e-11
3.795373094320051e-11
3.799699555185884e-11
3.8144040172173485e-11
3.833414026254723e-11
3.8534047094824785e-11
3.872990348497758e-11
3.892445456800102e-11
3.9139005371377717e-11
3.9420871288458045e-11
3.985853021015643e-11
4.0607691657546666e-11
4.193232838923663e-11
4.4237342767978376e-11
4.808567282022003e-11
3.4618373431702586e-11
3.078631840888398e-11
2.877047664551091e-11
2.7858030761874617e-11
2.7541402727257186e-11
2.7535019580183674e-11
2.7677239337423028e-11
2.7876857527230153e-11
2.808251435070202e-11
2.8266503666525436e-11
2.8416837187499518e-11
2.8534722720492766e-11
2.8636665234751216e-11
2.8762160129068606e-11
2.8990121176312827e-11
2.947096983510618e-11
3.0484417970689073e-11
3.254925270598837e-11
3.641817789018798e-11
2.2842531404538413e-11
1.9463933793395014e-11
1.8069713103147058e-11
1.7567015544572672e-11
1.7492083997944957e-11
1.761252085659934e-11
1.7809327556217192e-11
1.8019184900159647e-11
1.8207708977264443e-11
1.8356441728491056e-11
1.845683235562628e-11
1.850839905082239e-11
1.8520335491203933e-11
1.8517416264763323e-11
1.855324893727959e-11
1.8738207141666846e-11
1.9301389655356928e-11
2.0719906717390715e-11
2.415493677941398e-11
1.0501015622119463e-11
8.855788131508695e-12
8.289326179285355e-12
8.173051061350307e-12
8.245025822111168e-12
8.390025421390984e-12
8.552073653607539e-12
8.702639289156649e-12
8.826607594124127e-12
8.915748294979049e-12
8.965772443514566e-12
8.975433752195572e-12
8.947283823673537e-12
8.890517054486581e-12
8.827535931570921e-12
8.808472299518174e-12
8.944930729440247e-12
9.505381276470793e-12
1.1158355119385022e-11

