# vtk DataFile Version 2.0
mesh vtk view
ASCII
DATASET UNSTRUCTURED_GRID
POINTS 861 double
0.0 0.0 0.0
2.0 0.0 0.0
2.0 1.0 0.0
0.0 1.0 0.0
0.05000000001063675 9.446306372350258e-12 0.0
0.10000000001769561 1.781429174829016e-11 0.0
0.15000000002285174 2.656097246174621e-11 0.0
0.20000000002669938 3.5414515305314224e-11 0.0
0.25000000002944156 4.431183246301813e-11 0.0
0.3000000000311645 5.313775508614873e-11 0.0
0.35000000003202064 6.178464880392453e-11 0.0
0.400000000032098 7.014915317038833e-11 0.0
0.45000000003147184 7.813578882348125e-11 0.0
0.5000000000302136 8.56582103898304e-11 0.0
0.5500000000283936 9.264036972992351e-11 0.0
0.6000000000260811 9.90172548441505e-11 0.0
0.6500000000233439 1.0473518690345442e-10 0.0
0.7000000000202478 1.0975160233227257e-10 0.0
0.7500000000168556 1.1403431062123271e-10 0.0
0.800000000013226 1.1756028144563332e-10 0.0
0.850000000009414 1.2031408266858991e-10 0.0
0.9000000000054696 1.22286149325463e-10 0.0
0.9500000000014394 1.2347110174890503e-10 0.0
0.9999999999973885 1.2386633853578282e-10 0.0
1.0499999999935714 1.23471101748899e-10 0.0
1.099999999989819 1.222861493254447e-10 0.0
1.149999999986152 1.203140826685555e-10 0.0
1.1999999999826179 1.1756028144558132e-10 0.0
1.2499999999792648 1.1403431062116356e-10 0.0
1.2999999999761505 1.0975160233218819e-10 0.0
1.349999999973332 1.0473518690335687e-10 0.0
1.3999999999708717 9.901725484404224e-11 0.0
1.4499999999688369 9.264036972980752e-11 0.0
1.4999999999672937 8.565821038970974e-11 0.0
1.5499999999663132 7.813578882335824e-11 0.0
1.5999999999659646 7.014915317026536e-11 0.0
1.6499999999663189 6.178464880380401e-11 0.0
1.6999999999674527 5.3137755086032826e-11 0.0
1.749999999969448 4.431183246291012e-11 0.0
1.799999999972404 3.541451530522704e-11 0.0
1.849999999976459 2.6560972461683468e-11 0.0
1.8999999999818407 1.7814291748249875e-11 0.0
1.949999999989138 9.446306372329937e-12 0.0
2.0 0.04999999999989965 0.0
2.0 0.09999999999981467 0.0
2.0 0.1499999999997036 0.0
2.0 0.1999999999995579 0.0
2.0 0.2499999999994121 0.0
2.0 0.2999999999992664 0.0
2.0 0.3499999999991206 0.0
2.0 0.3999999999989749 0.0
2.0 0.4499999999988292 0.0
2.0 0.4999999999986943 0.0
2.0 0.5499999999988151 0.0
2.0 0.5999999999989468 0.0
2.0 0.6499999999990784 0.0
2.0 0.69999999999921 0.0
2.0 0.7499999999993417 0.0
2.0 0.7999999999994734 0.0
2.0 0.8499999999996051 0.0
2.0 0.8999999999997368 0.0
2.0 0.9499999999998684 0.0
1.9500000000110547 1.0000000000100446 0.0
1.9000000000182622 1.0000000000188698 0.0
1.8500000000233963 1.0000000000279656 0.0
1.8000000000270946 1.0000000000370401 0.0
1.7500000000296372 1.0000000000460243 0.0
1.7000000000315894 1.0000000000547884 0.0
1.650000000032618 1.0000000000632037 0.0
1.6000000000327537 1.0000000000711358 0.0
1.5500000000320608 1.000000000078448 0.0
1.5000000000306046 1.0000000000849993 0.0
1.450000000028448 1.0000000000906442 0.0
1.4000000000256585 1.0000000000952272 0.0
1.3500000000223056 1.0000000000985774 0.0
1.3000000000184666 1.000000000100492 0.0
1.2500000000142202 1.0000000001007117 0.0
1.200000000009647 1.000000000098837 0.0
1.1500000000048667 1.0000000000942764 0.0
1.0999999999999832 1.000000000085098 0.0
1.0499999999968648 1.0000000000703975 0.0
1.000000000004117 1.0000000000123659 0.0
0.9500000000109021 1.0000000000703975 0.0
0.9000000000072285 1.000000000085098 0.0
0.850000000001791 1.0000000000942764 0.0
0.7999999999964559 1.000000000098837 0.0
0.7499999999913274 1.0000000001007117 0.0
0.6999999999865261 1.000000000100492 0.0
0.6499999999821316 1.0000000000985774 0.0
0.5999999999782251 1.0000000000952272 0.0
0.5499999999748804 1.0000000000906442 0.0
0.499999999972169 1.0000000000849993 0.0
0.4499999999701577 1.000000000078448 0.0
0.39999999996891084 1.0000000000711358 0.0
0.3499999999684914 1.0000000000632037 0.0
0.2999999999689648 1.0000000000547884 0.0
0.24999999997040495 1.0000000000460243 0.0
0.19999999997290438 1.0000000000370401 0.0
0.14999999997660307 1.0000000000279656 0.0
0.09999999998173793 1.0000000000188698 0.0
0.04999999998894534 1.0000000000100446 0.0
0.0 0.9499999999997918 0.0
0.0 0.8999999999995836 0.0
0.0 0.8499999999996529 0.0
0.0 0.7999999999999998 0.0
0.0 0.7500000000003466 0.0
0.0 0.7000000000006934 0.0
0.0 0.6500000000010401 0.0
0.0 0.6000000000013869 0.0
0.0 0.5500000000017335 0.0
0.0 0.5000000000020587 0.0
0.0 0.4500000000018723 0.0
0.0 0.4000000000016644 0.0
0.0 0.3500000000014564 0.0
0.0 0.3000000000012483 0.0
0.0 0.2500000000010403 0.0
0.0 0.2000000000008322 0.0
0.0 0.1500000000006241 0.0
0.0 0.100000000000416 0.0
0.0 0.05000000000020799 0.0
0.05000000000539519 0.05000000000734502 0.0
0.05000000000359422 0.10000000000705188 0.0
0.05000000000247856 0.1500000000072415 0.0
0.050000000001733234 0.20000000000757925 0.0
0.05000000000119106 0.25000000000796235 0.0
0.05000000000077923 0.30000000000834753 0.0
0.05000000000045467 0.35000000000871495 0.0
0.050000000000189664 0.4000000000090547 0.0
0.04999999999996409 0.4500000000093616 0.0
0.049999999999761756 0.5000000000096109 0.0
0.049999999999567814 0.550000000009329 0.0
0.04999999999936701 0.6000000000089855 0.0
0.04999999999914164 0.6500000000085997 0.0
0.04999999999886907 0.7000000000081738 0.0
0.04999999999851764 0.7500000000077137 0.0
0.049999999998038384 0.8000000000072361 0.0
0.049999999997349755 0.8500000000067841 0.0
0.049999999996268564 0.9000000000067359 0.0
0.04999999999445216 0.9500000000074434 0.0
0.1000000000109638 0.05000000001629819 0.0
0.10000000000713428 0.10000000001540037 0.0
0.10000000000487733 0.15000000001524208 0.0
0.10000000000335374 0.20000000001542984 0.0
0.10000000000226335 0.250000000015773 0.0
0.10000000000144572 0.30000000001617466 0.0
0.10000000000081005 0.350000000016584 0.0
0.10000000000029781 0.4000000000169729 0.0
0.09999999999986706 0.4500000000173254 0.0
0.09999999999948464 0.5000000000176124 0.0
0.09999999999912026 0.5500000000173751 0.0
0.09999999999874297 0.6000000000170649 0.0
0.09999999999831662 0.6500000000167044 0.0
0.09999999999779394 0.7000000000163032 0.0
0.09999999999710814 0.7500000000158833 0.0
0.09999999999615614 0.800000000015493 0.0
0.09999999999475849 0.8500000000152304 0.0
0.09999999999258444 0.9000000000155612 0.0
0.0999999999887254 0.9500000000169045 0.0
0.1500000000154821 0.05000000002534501 0.0
0.15000000001050479 0.1000000000244893 0.0
0.15000000000719352 0.1500000000240946 0.0
0.15000000000491973 0.20000000002407903 0.0
0.15000000000328242 0.25000000002428663 0.0
0.15000000000206057 0.3000000000246093 0.0
0.15000000000111793 0.35000000002497944 0.0
0.15000000000036526 0.40000000002535524 0.0
0.14999999999973837 0.4500000000257118 0.0
0.14999999999918634 0.5000000000260149 0.0
0.149999999998663 0.5500000000258226 0.0
0.14999999999812122 0.6000000000255689 0.0
0.1499999999975054 0.6500000000252788 0.0
0.14999999999674346 0.7000000000249704 0.0
0.14999999999573366 0.7500000000246788 0.0
0.1499999999943206 0.8000000000244686 0.0
0.14999999999225527 0.8500000000244486 0.0
0.14999999998909294 0.9000000000250414 0.0
0.14999999998414162 0.9500000000263353 0.0
0.20000000001900833 0.050000000034520174 0.0
0.2000000000133594 0.10000000003379013 0.0
0.20000000000930396 0.15000000003334935 0.0
0.20000000000638518 0.2000000000331951 0.0
0.20000000000424514 0.2500000000332635 0.0
0.20000000000263682 0.300000000033474 0.0
0.20000000000139603 0.3500000000337638 0.0
0.20000000000040843 0.4000000000340889 0.0
0.19999999999959003 0.4500000000344207 0.0
0.1999999999988728 0.5000000000347236 0.0
0.1999999999981957 0.5500000000345725 0.0
0.19999999999749565 0.6000000000343843 0.0
0.19999999999669943 0.6500000000341857 0.0
0.19999999999571244 0.7000000000339975 0.0
0.19999999999440432 0.7500000000338568 0.0
0.19999999999258633 0.8000000000338208 0.0
0.19999999998997597 0.8500000000339681 0.0
0.19999999998616788 0.9000000000346164 0.0
0.1999999999806462 0.9500000000357679 0.0
0.2500000000216262 0.050000000043698145 0.0
0.2500000000156037 0.1000000000431328 0.0
0.2500000000110593 0.15000000004272285 0.0
0.25000000000765615 0.20000000004250648 0.0
0.25000000000509576 0.25000000004247097 0.0
0.2500000000031442 0.3000000000425743 0.0
0.2500000000016276 0.3500000000427723 0.0
0.2500000000004174 0.40000000004302894 0.0
0.24999999999941458 0.45000000004331836 0.0
0.24999999999853745 0.5000000000436068 0.0
0.24999999999771197 0.5500000000434889 0.0
0.24999999999686195 0.6000000000433626 0.0
0.24999999999589986 0.6500000000432542 0.0
0.24999999999471503 0.7000000000431813 0.0
0.24999999999315983 0.7500000000431718 0.0
0.2499999999910325 0.8000000000432623 0.0
0.2499999999880593 0.8500000000434885 0.0
0.2499999999838908 0.9000000000441052 0.0
0.24999999997813063 0.9500000000450695 0.0
0.3000000000233777 0.05000000005277895 0.0
0.30000000001718874 0.10000000005238095 0.0
0.30000000001235827 0.1500000000520396 0.0
0.300000000008627 0.20000000005180865 0.0
0.30000000000575044 0.25000000005170714 0.0
0.3000000000035197 0.3000000000517231 0.0
0.30000000000176613 0.3500000000518335 0.0
0.30000000000035665 0.40000000005201597 0.0
0.2999999999991843 0.450000000052252 0.0
0.2999999999981586 0.5000000000525132 0.0
0.2999999999971957 0.5500000000524148 0.0
0.29999999999621063 0.6000000000523364 0.0
0.299999999995107 0.6500000000523011 0.0
0.29999999999376614 0.7000000000523197 0.0
0.29999999999203536 0.7500000000524054 0.0
0.2999999999897164 0.8000000000525709 0.0
0.29999999998655774 0.850000000052817 0.0
0.29999999998225985 0.9000000000533565 0.0
0.2999999999764983 0.9500000000541265 0.0
0.35000000002438886 0.0500000000616567 0.0
0.350000000018189 0.10000000006141972 0.0
0.3500000000132306 0.15000000006116163 0.0
0.3500000000093069 0.2000000000609434 0.0
0.3500000000062163 0.2500000000608033 0.0
0.3500000000037765 0.30000000006075067 0.0
0.35000000000183223 0.3500000000607822 0.0
0.35000000000025333 0.40000000006088904 0.0
0.34999999999893067 0.45000000006106317 0.0
0.3499999999977698 0.5000000000612834 0.0
0.3499999999966826 0.5500000000611858 0.0
0.34999999999558 0.6000000000611333 0.0
[...]
POINT_DATA 861
SCALARS DISPL_step0 float 1
LOOKUP_TABLE default
0.0
0.0
0.0
0.0
1.6679153299226793e-11
2.945982423444123e-11
4.110293829384743e-11
5.2004769877555564e-11
6.236151325509916e-11
7.222172762142598e-11
8.158749310366046e-11
9.043538137911699e-11
9.873040315104064e-11
1.0643312663416583e-10
1.1350428676635946e-10
1.1990771927395765e-10
1.2561216460628286e-10
1.305921809615198e-10
1.348283287239082e-10
1.3830676842036955e-10
1.4101842918308284e-10
1.429579288345915e-10
1.4412244416382144e-10
1.4451072829174658e-10
1.4412244416381953e-10
1.4295792883458125e-10
1.4101842918306002e-10
1.3830676842033212e-10
1.348283287238559e-10
1.3059218096145382e-10
1.256121646062045e-10
1.199077192738685e-10
1.135042867662618e-10
1.0643312663406202e-10
9.873040315093241e-11
9.043538137900615e-11
8.158749310354879e-11
7.222172762131497e-11
6.23615132549915e-11
5.2004769877465486e-11
4.110293829377985e-11
2.945982423439619e-11
1.667915329920595e-11
0.0
0.0
0.0
0.0
0.0
0.0
0.0
0.0
0.0
0.0
0.0
0.0
0.0
0.0
0.0
0.0
0.0
0.0
0.0
1.7606456558368295e-11
3.0975786357369725e-11
4.301019421336724e-11
5.4120410660130105e-11
6.45025989708734e-11
7.419105566944636e-11
8.316440759507949e-11
9.136640885698528e-11
9.871890469493318e-11
1.0512693431741332e-10
1.1048012443557267e-10
1.1465035646911947e-10
1.1748470528050815e-10
1.1878913186475178e-10
1.1829988116280863e-10
1.1558831944790573e-10
1.1000798578882563e-10
9.936402230307532e-11
8.252951178604764e-11
1.442695404226632e-11
8.252951178673331e-11
9.936402230390559e-11
1.1000798578979084e-10
1.1558831944897614e-10
1.1829988116396033e-10
1.1878913186595562e-10
1.1748470528173476e-10
1.1465035647033871e-10
1.104801244367551e-10
1.0512693431853075e-10
9.871890469595935e-11
9.136640885789626e-11
8.316440759585299e-11
7.419105567006223e-11
6.450259897132146e-11
5.412041066049488e-11
4.301019421365366e-11
3.0975786357573024e-11
1.7606456558480943e-11
0.0
0.0
0.0
0.0
0.0
0.0
0.0
0.0
0.0
0.0
0.0
0.0
0.0
0.0
0.0
0.0
0.0
0.0
0.0
1.0501015622107861e-11
8.855788131514388e-12
8.289326179308542e-12
8.173051061388487e-12
8.245025822161117e-12
8.390025421449643e-12
8.552073653672238e-12
8.70263928922534e-12
8.826607594194617e-12
8.915748295049532e-12
8.965772443583143e-12
8.975433752261753e-12
8.947283823737804e-12
8.890517054549085e-12
8.827535931632173e-12
8.808472299578518e-12
8.944930729498739e-12
9.505381276527428e-12
1.1158355119449067e-11
2.2842531404536255e-11
1.9463933793405854e-11
1.806971310318576e-11
1.7567015544637903e-11
1.7492083998032574e-11
1.7612520856704238e-11
1.780932755633485e-11
1.8019184900286137e-11
1.820770897739654e-11
1.8356441728625622e-11
1.8456832355759984e-11
1.8508399050954496e-11
1.8520335491334612e-11
1.8517416264892787e-11
1.8553248937408505e-11
1.8738207141795475e-11
1.9301389655483703e-11
2.0719906717517002e-11
2.4154936779561613e-11
3.461837343172592e-11
3.078631840891519e-11
2.877047664557038e-11
2.7858030761966457e-11
2.7541402727378206e-11
2.7535019580329173e-11
2.767723933758768e-11
2.7876857527408872e-11
2.808251435089106e-11
2.826650366672127e-11
2.8416837187697556e-11
2.8534722720691687e-11
2.8636665234950906e-11
2.8762160129268932e-11
2.899012117651456e-11
2.9470969835309e-11
3.0484417970890524e-11
3.2549252706193164e-11
3.641817789041921e-11
4.5971110081150365e-11
4.211447038624905e-11
3.98569662969883e-11
3.8660080142043564e-11
3.811769996407564e-11
3.795373094338554e-11
3.799699555206795e-11
3.81440401724022e-11
3.833414026279128e-11
3.85340470950803e-11
3.8729903485239696e-11
3.892445456826786e-11
3.9139005371648366e-11
3.942087128873189e-11
3.985853021043358e-11
4.0607691657826414e-11
4.193232838951664e-11
4.423734276826444e-11
4.8085672820534076e-11
5.6903305269036785e-11
5.3261656400770685e-11
5.097969619239337e-11
4.964910631186353e-11
4.894700099269074e-11
4.864163234995742e-11
4.8576618645065415e-11
4.8651912974889246e-11
4.880646580162081e-11
4.9006337361412786e-11
4.923772452190497e-11
4.9504212163947435e-11
4.982800751015001e-11
5.0255616626322806e-11
5.0868997992239254e-11
5.1803466301999695e-11
5.326986852253682e-11
5.5578868626667944e-11
5.915149643636718e-11
6.741223966784833e-11
6.410733169780404e-11
6.193702272465565e-11
6.058226653592149e-11
5.979162681946929e-11
5.937944088121035e-11
5.921590457605146e-11
5.921460668938269e-11
5.932148829406027e-11
5.950633970559509e-11
5.975729784317851e-11
6.007820111774041e-11
6.04887854702617e-11
6.10280005634405e-11
6.176103408244249e-11
6.27904497326311e-11
6.427211614316489e-11
6.643479973219585e-11
6.960040873899614e-11
7.746224531575161e-11
7.456004919427052e-11
7.258102054091297e-11
7.127659033494212e-11
7.04535296749234e-11
6.996902639675856e-11
6.972207154467088e-11
6.964468303614934e-11
6.96942436209805e-11
6.984748179357906e-11
7.009613605246855e-11
7.044429516695708e-11
7.090746702014307e-11
7.151366260054986e-11
7.230708630435283e-11
7.335554029309142e-11
7.476305415481979e-11
7.668937751027423e-11
7.937505181350515e-11
8.700385399845334e-11
8.453521915945215e-11
8.279193129295269e-11
8.158403132247584e-11
8.076718680989227e-11
8.023627079512832e-11
7.991789224992874e-11
7.976358766386125e-11
7.974419768624346e-11
7.984534375464283e-11
8.006381540145274e-11
8.04047244555791e-11
8.087946593868675e-11
8.150483919646825e-11
8.230420888410858e-11
8.331230449746044e-11
8.458605054633105e-11
8.622385714321155e-11
8.839389919982688e-11
9.598129329560551e-11
9.395360497764375e-11
9.24664947322662e-11
9.138038652201217e-11
9.059247163017272e-11
9.003030553993975e-11
8.964548285819416e-11
8.940829022762719e-11
8.930340609171284e-11
8.932634387779742e-11
8.948025331514442e-11
8.977279236726726e-11
9.021301532297442e-11
9.080866481680978e-11
9.156497367429895e-11
9.248706434134095e-11
9.358895731659708e-11
9.49123954834465e-11
9.65570126752528e-11
1.0433840476413709e-10
1.0274212153871099e-10
1.0151471381291628e-10
1.0056012351634068e-10
9.9810861123331e-11
9.922242615790146e-11
9.876825243952747e-11
9.843561463510414e-11
9.822238829111403e-11
9.813426014030567e-11
9.818188932265098e-11
9.837756170697561e-11
9.873109318583885e-11
9.924523868866007e-11
9.991180439411846e-11
1.007109910256157e-10
1.0161784157048843e-10
1.0262003941000112e-10
1.037496605057377e-10
1.1202251013473604e-10
1.108355771075571e-10
1.0985921390770856e-10
1.090345187953446e-10
1.0832369064233285e-10
1.077056463651627e-10
1.0717225043169661e-10
1.0672538540201649e-10
1.0637470281763066e-10
1.061356382900967e-10
1.0602711847883538e-10
1.060683109717711e-10
1.0627383140846619e-10
1.0664725449140293e-10
1.0717385612148334e-10
1.078154967440495e-10
1.085127651243248e-10
1.0920075420004102e-10
1.0984271385875248e-10
1.1898703802182302e-10
1.1817816055802098e-10
1.174354725731891e-10
1.1673104747819367e-10
1.1605146068953019e-10
1.1539463962996139e-10
1.1476727443984727e-10
1.1418295497720717e-10
1.1366090591968093e-10
1.132249570533759e-10
1.1290216910500945e-10
1.1272029732467123e-10
1.1270305622751383e-10
1.1286216978615933e-10
1.1318622179914815e-10
1.1362882673026387e-10
1.1410322252254332e-10
1.1449325554028987e-10
1.1468973291915363e-10
1.251931016314629e-10
1.247243672526201e-10
1.2419199303118005e-10
1.235930205047296e-10
1.229333489406296e-10
1.2222562000592239e-10
1.2148759107893053e-10
1.2074117489211836e-10
1.2001210345180562e-10
1.193299785946276e-10
1.1872823715043264e-10
1.182431969475421e-10
1.1791077406479278e-10
1.177587744915618e-10
1.1779235158234193e-10
1.1797346468589888e-10
1.182013105296288e-10
1.1831270084299756e-10
1.1811888200122975e-10
1.3061016332828612e-10
1.3043920775943396e-10
1.3009000797418105e-10
1.295788918954118e-10
1.289263639013792e-10
1.2815568196364557e-10
1.2729188153999307e-10
1.2636145385154788e-10
1.253927440795323e-10
1.2441701723004684e-10
1.2346997633617724e-10
1.2259317802143664e-10
1.2183405080734516e-10
1.212417204620034e-10
1.2085365771468626e-10
1.2066565893643995e-10
1.2059181691362074e-10
1.2043397059670353e-10
1.1991643838022322e-10
1.3521588751291785e-10
1.3529767233021744e-10
1.351025327222656e-10
1.3466094200567034e-10
1.34003776500592e-10
1.3316118791891619e-10
1.3216191286190442e-10
1.3103322897587172e-10
1.2980170728931367e-10
1.2849490006991987e-10
1.2714410018784887e-10
1.2578820863424204e-10
1.2447828728558115e-10
1.232809445205136e-10
1.2227476087505546e-10
1.2152657837612468e-10
1.2101672779430446e-10
1.2056342820724016e-10
1.1978823983048655e-10
1.3899531017027426e-10
1.3928351767050892e-10
1.39212753307965e-10
1.3882324193164168e-10
1.3815265790703093e-10
1.3723492828084873e-10
1.3609947315518244e-10
1.3477103706705696e-10
1.332702726223917e-10
1.3161532077534924e-10
1.2982480065698153e-10
1.2792287684874843e-10
1.2594734130401266e-10
1.2396155223054593e-10
1.2206916686097412e-10
1.2042129515663253e-10
1.1917918295528266e-10
1.1826673148039833e-10
1.172985984968658e-10
1.4193949997180979e-10
1.4238753213710215e-10
1.4241187034551221e-10
1.4205898116408508e-10
1.4137055943133487e-10
1.4038200800900123e-10
1.391213423030427e-10
1.3760855688565297e-10
1.358555292444195e-10
1.3386664446379229e-10
1.316405530869356e-10
1.2917392280168435e-10
1.2646891945580586e-10
1.2354778281211008e-10
1.2048080877957017e-10
1.174365024754256e-10
1.1475499056568619e-10
1.1294970012783411e-10
1.1158347961042924e-10
1.440439349621939e-10
1.4460551320898715e-10
1.4469663449067326e-10
1.4436740293761287e-10
1.436615967727542e-10
1.4261473222284013e-10
1.4125252245215489e-10
1.3958962144306106e-10
1.3762856892092292e-10
1.3535890357995014e-10
1.327565241943281e-10
1.2978364218588153e-10
1.2639030700026262e-10
1.2252020533513322e-10
1.181277744095738e-10
1.132285674199492e-10
1.0803459002050333e-10
1.0338742183405241e-10
1.0144713362936262e-10
1.453068525273011e-10
1.4593624416443665e-10
1.4606689237883268e-10
1.4575072300559766e-10
1.4503241260185862e-10
1.4394711497521402e-10
1.425185503585553e-10
1.407572227509273e-10
1.3865852651255735e-10
1.3620046271019031e-10
1.3334059702462217e-10
1.3001172347950558e-10
1.261154181385154e-10
1.2151214255256199e-10
1.1600643690420275e-10
1.0932445393648796e-10
1.0111158141157835e-10
9.099059517298653e-11
8.063246743978498e-11
1.4572783420317885e-10
1.46379770779581e-10
1.4652349529808672e-10
1.462114771781555e-10
1.4548862979009817e-10
1.4438990828931986e-10
1.4293825607842693e-10
1.411426166516247e-10
1.3899570748186786e-10
1.3647116814612854e-10
1.335195055872318e-10
1.3006186820645914e-10
1.259798309570747e-10
1.2109753843107237e-10
1.1514739051758325e-10
1.0769958598986973e-10
9.797134850885455e-11
8.435000324145206e-11
6.119734806942912e-11
1.4530685252728484e-10
1.4593624416440545e-10
1.4606689237878555e-10
1.4575072300553386e-10
1.4503241260177698e-10
1.4394711497511337e-10
1.4251855035843428e-10
1.4075722275078464e-10
1.386585265123917e-10
1.3620046270999998e-10
1.3334059702440325e-10
1.3001172347925513e-10
1.2611541813823e-10
1.21512142552237e-10
1.1600643690383141e-10
1.0932445393606021e-10
1.0111158141107782e-10
9.099059517238877e-11
8.063246743911341e-11
1.44043934962156e-10
1.4460551320892082e-10
1.446966344905771e-10
1.4436740293748502e-10
1.436615967725927e-10
1.426147322226427e-10
1.4125252245191906e-10
1.395896214427843e-10
1.3762856892060257e-10
1.3535890357958326e-10
1.3275652419390714e-10
1.2978364218540133e-10
1.263903069997174e-10
1.225202053345161e-10
1.1812777440887696e-10
1.1322856741916509e-10
1.080345900196307e-10
1.0338742183312415e-10
1.0144713362847385e-10
1.4193949997174827e-10
1.4238753213700069e-10
1.4241187034536872e-10
1.420589811638972e-10
1.4137055943109995e-10
1.4038200800871583e-10
1.391213423027039e-10
1.3760855688525745e-10
1.3585552924396364e-10
1.3386664446327204e-10
1.3164055308634145e-10
1.2917392280101093e-10
1.2646891945504806e-10
1.2354778281126377e-10
1.204808087786347e-10
1.1743650247440852e-10
1.1475499056461401e-10
1.1294970012676546e-10
1.1158347960941274e-10
1.389953101701892e-10
1.3928351767037435e-10
1.3921275330777864e-10
1.388232419314004e-10
1.381526579067316e-10
1.3723492828048795e-10
1.3609947315475668e-10
1.3477103706656238e-10
1.3327027262182436e-10
1.316153207747048e-10
1.2982480065625075e-10
1.2792287684792738e-10
1.25947341303099e-10
1.2396155222954122e-10
1.2206916685988684e-10
1.2042129515548262e-10
1.1917918295410615e-10
1.1826673147923792e-10
1.1729859849574824e-10
1.3521588751281135e-10
1.3529767233005444e-10
1.3510253272204295e-10
1.3466094200538512e-10
1.3400377650024067e-10
1.331611879184953e-10
1.3216191286141044e-10
1.3103322897530089e-10
1.2980170728866214e-10
1.2849490006918404e-10
1.2714410018702052e-10
1.2578820863331953e-10
1.2447828728456623e-10
1.23280944519413e-10
1.2227476087388345e-10
1.2152657837490536e-10
1.210167277930685e-10
1.205634282060169e-10
1.1978823982929466e-10
1.306101633281623e-10
1.3043920775924862e-10
1.3009000797393085e-10
1.2957889189509348e-10
1.2892636390098977e-10
1.2815568196318157e-10
1.2729188153945106e-10
1.2636145385092465e-10
1.2539274407882463e-10
1.2441701722925205e-10
1.2346997633528913e-10
1.2259317802045605e-10
1.2183405080627686e-10
1.2124172046085726e-10
1.2085365771347845e-10
1.206656589351922e-10
1.205918169123573e-10
1.2043397059544495e-10
1.19916438378985e-10
1.251931016313258e-10
1.2472436725241929e-10
1.241919930309115e-10
1.235930205043902e-10
1.2293334894021632e-10
1.2222562000543244e-10
1.214875910783608e-10
1.2074117489146633e-10
1.200121034510691e-10
1.1932997859380444e-10
1.1872823714951943e-10
1.182431969465415e-10
1.1791077406371126e-10
1.1775877449040997e-10
1.1779235158113492e-10
1.1797346468465482e-10
1.182013105283666e-10
1.183127008417322e-10
1.1811888199997525e-10
1.1898703802167743e-10
1.181781605578117e-10
1.174354725729117e-10
1.1673104747784506e-10
1.1605146068910745e-10
1.1539463962946224e-10
1.147672744392697e-10
1.1418295497654898e-10
1.1366090591894057e-10
1.1322495705255277e-10
1.129021691041018e-10
1.1272029732368316e-10
1.1270305622645216e-10
1.1286216978503416e-10
1.1318622179797268e-10
1.136288267290525e-10
1.1410322252131055e-10
1.1449325553904747e-10
1.1468973291791371e-10
1.1202251013458683e-10
1.1083557710734678e-10
1.0985921390743181e-10
1.0903451879499812e-10
1.0832369064191427e-10
1.0770564636467024e-10
1.0717225043112896e-10
1.067253854013724e-10
1.0637470281690932e-10
1.0613563828929803e-10
1.0602711847795986e-10
1.0606831097082299e-10
1.0627383140745234e-10
1.0664725449033219e-10
1.071738561203664e-10
1.0781549674289793e-10
1.0851276512314943e-10
1.0920075419885077e-10
1.0984271385755777e-10
1.0433840476398914e-10
1.0274212153850686e-10
1.0151471381264921e-10
1.0056012351600735e-10
9.981086112292917e-11
9.922242615743011e-11
9.876825243898595e-11
9.843561463449203e-11
9.822238829043146e-11
9.813426013955308e-11
9.818188932183035e-11
9.837756170609147e-11
9.873109318489695e-11
9.924523868766804e-11
9.991180439308447e-11
1.0071099102454857e-10
1.0161784156939697e-10
1.0262003940889141e-10
1.0374966050461693e-10
9.598129329546319e-11
9.395360497745187e-11
9.246649473201681e-11
9.138038652170135e-11
9.059247162979875e-11
9.003030553950186e-11
8.964548285769268e-11
8.94082902270626e-11
8.930340609108602e-11
8.932634387710912e-11
8.948025331439814e-11
8.977279236646699e-11
9.021301532212515e-11
9.080866481591745e-11
9.156497367336976e-11
9.248706434038157e-11
9.358895731561408e-11
9.49123954824437e-11
9.655701267423317e-11
8.70038539983207e-11
8.453521915927833e-11
8.279193129272794e-11
8.15840313221961e-11
8.07671868095553e-11
8.023627079473442e-11
7.991789224947902e-11
7.976358766335703e-11
7.974419768568617e-11
7.984534375403414e-11
8.006381540079654e-11
8.04047244548793e-11
8.087946593794744e-11
8.150483919569364e-11
8.230420888330332e-11
8.331230449662907e-11
8.458605054547889e-11
8.62238571423394e-11
8.839389919893296e-11
7.746224531563198e-11
7.45600491941195e-11
7.258102054071866e-11
7.127659033469966e-11
7.045352967463093e-11
6.996902639641686e-11
6.97220715442817e-11
6.964468303571526e-11
6.969424362050364e-11
6.984748179306154e-11
7.00961360519152e-11
7.04442951663711e-11
7.090746701952782e-11
7.151366259990804e-11
7.230708630368748e-11
7.335554029240565e-11
7.476305415411767e-11
7.668937750955367e-11
7.937505181275897e-11
6.741223966774496e-11
6.410733169767993e-11
6.193702272449641e-11
6.058226653572115e-11
5.979162681922643e-11
5.937944088092645e-11
5.921590457572963e-11
5.921460668902595e-11
5.932148829367141e-11
5.950633970517734e-11
5.975729784273684e-11
6.007820111727767e-11
6.048878546978043e-11
6.10280005629425e-11
6.176103408192941e-11
6.279044973210475e-11
6.427211614262853e-11
6.643479973164471e-11
6.960040873841723e-11
5.690330526895315e-11
5.326165640067641e-11
5.097969619227135e-11
4.964910631170693e-11
4.894700099249885e-11
4.864163234973285e-11
4.857661864481207e-11
4.865191297461108e-11
4.88064658013217e-11
4.9006337361096177e-11
4.923772452157621e-11
4.9504212163608924e-11
4.98280075098034e-11
5.025561662596927e-11
5.086899799187972e-11
5.180346630163516e-11
5.326986852216974e-11
5.557886862629209e-11
5.915149643596355e-11
4.59711100810957e-11
4.2114470386186936e-11
3.985696629689916e-11
3.866008014192069e-11
3.811769996391975e-11
3.795373094320051e-11
3.799699555185884e-11
3.8144040172173485e-11
3.833414026254723e-11
3.8534047094824785e-11
3.872990348497758e-11
3.892445456800102e-11
3.9139005371377717e-11
3.9420871288458045e-11
3.985853021015643e-11
4.0607691657546666e-11
4.193232838923663e-11
4.4237342767978376e-11
4.808567282022003e-11
3.4618373431702586e-11
3.078631840888398e-11
2.877047664551091e-11
2.7858030761874617e-11
2.7541402727257186e-11
2.7535019580183674e-11
2.7677239337423028e-11
2.7876857527230153e-11
2.808251435070202e-11
2.8266503666525436e-11
2.8416837187499518e-11
2.8534722720492766e-11
2.8636665234751216e-11
2.8762160129068606e-11
2.8990121176312827e-11
2.947096983510618e-11
3.0484417970689073e-11
3.254925270598837e-11
3.641817789018798e-11
2.2842531404538413e-11
1.9463933793395014e-11
1.8069713103147058e-11
1.7567015544572672e-11
1.7492083997944957e-11
1.761252085659934e-11
1.7809327556217192e-11
1.8019184900159647e-11
1.8207708977264443e-11
1.8356441728491056e-11
1.845683235562628e-11
1.850839905082239e-11
1.8520335491203933e-11
1.8517416264763323e-11
1.855324893727959e-11
1.8738207141666846e-11
1.9301389655356928e-11
2.0719906717390715e-11
2.415493677941398e-11
1.0501015622119463e-11
8.855788131508695e-12
8.289326179285355e-12
8.173051061350307e-12
8.245025822111168e-12
8.390025421390984e-12
8.552073653607539e-12
8.702639289156649e-12
8.826607594124127e-12
8.915748294979049e-12
8.965772443514566e-12
8.975433752195572e-12
8.947283823673537e-12
8.890517054486581e-12
8.827535931570921e-12
8.808472299518174e-12
8.944930729440247e-12
9.505381276470793e-12
1.1158355119385022e-11

