# vtk DataFile Version 2.0
mesh vtk view
ASCII
DATASET UNSTRUCTURED_GRID
POINTS 861 double
0.0 0.0 0.0
2.0 0.0 0.0
2.0 1.0 0.0
0.0 1.0 0.0
0.04999999997307818 -2.3615765930875644e-11 0.0
0.09999999995505852 -4.4535729370725405e-11 0.0
0.1499999999418402 -6.640243115436552e-11 0.0
0.19999999993195414 -8.853628826328555e-11 0.0
0.24999999992481234 -1.1077958115754534e-10 0.0
0.2999999999200139 -1.328443877153718e-10 0.0
0.3499999999173637 -1.5446162200981131e-10 0.0
0.3999999999166599 -1.753728829259708e-10 0.0
0.44999999991771544 -1.9533947205870312e-10 0.0
0.4999999999203509 -2.14145525974576e-10 0.0
0.5499999999243906 -2.3160092432480875e-10 0.0
0.599999999929662 -2.4754313711037624e-10 0.0
0.6499999999359948 -2.618379672586361e-10 0.0
0.6999999999432248 -2.7437900583068145e-10 0.0
0.7499999999511954 -2.850857765530818e-10 0.0
0.7999999999597591 -2.939007036140833e-10 0.0
0.8499999999687795 -3.007852066714748e-10 0.0
0.8999999999781306 -3.0571537331365747e-10 0.0
0.9499999999876961 -3.0867775437226255e-10 0.0
0.9999999999973885 -3.09665846339457e-10 0.0
1.0500000000073146 -3.0867775437224745e-10 0.0
1.100000000017158 -3.057153733136117e-10 0.0
1.1500000000267865 -3.007852066713888e-10 0.0
1.2000000000360849 -2.939007036139533e-10 0.0
1.250000000044925 -2.850857765529089e-10 0.0
1.3000000000531735 -2.7437900583047047e-10 0.0
1.3500000000606813 -2.6183796725839217e-10 0.0
1.4000000000672908 -2.475431371101056e-10 0.0
1.4500000000728397 -2.3160092432451882e-10 0.0
1.5000000000771565 -2.1414552597427434e-10 0.0
1.5500000000800696 -1.9533947205839556e-10 0.0
1.6000000000814028 -1.7537288292566343e-10 0.0
1.6500000000809758 -1.5446162200951001e-10 0.0
1.700000000078603 -1.3284438771508206e-10 0.0
1.7500000000740772 -1.107795811572753e-10 0.0
1.8000000000671492 -8.85362882630676e-11 0.0
1.8500000000574706 -6.640243115420867e-11 0.0
1.9000000000444779 -4.453572937062469e-11 0.0
1.9500000000266966 -2.3615765930824844e-11 0.0
2.0 0.04999999999989965 0.0
2.0 0.09999999999981467 0.0
2.0 0.1499999999997036 0.0
2.0 0.1999999999995579 0.0
2.0 0.2499999999994121 0.0
2.0 0.2999999999992664 0.0
2.0 0.3499999999991206 0.0
2.0 0.3999999999989749 0.0
2.0 0.4499999999988292 0.0
2.0 0.4999999999986943 0.0
2.0 0.5499999999988151 0.0
2.0 0.5999999999989468 0.0
2.0 0.6499999999990784 0.0
2.0 0.69999999999921 0.0
2.0 0.7499999999993417 0.0
2.0 0.7999999999994734 0.0
2.0 0.8499999999996051 0.0
2.0 0.8999999999997368 0.0
2.0 0.9499999999998684 0.0
1.949999999971635 0.9999999999748882 0.0
1.899999999952889 0.9999999999528256 0.0
1.849999999939322 0.999999999930086 0.0
1.799999999929348 0.9999999999073994 0.0
1.7499999999224136 0.9999999998849394 0.0
1.6999999999185975 0.999999999863029 0.0
1.6499999999172408 0.9999999998419911 0.0
1.599999999918116 0.9999999998221606 0.0
1.549999999921059 0.9999999998038802 0.0
1.4999999999259142 0.9999999997875015 0.0
1.4499999999325197 0.9999999997733896 0.0
1.3999999999407082 0.9999999997619319 0.0
1.3499999999503012 0.9999999997535567 0.0
1.2999999999611132 0.9999999997487701 0.0
1.2499999999729439 0.9999999997482206 0.0
1.199999999985592 0.9999999997529074 0.0
1.1499999999987565 0.999999999764309 0.0
1.1000000000121766 0.9999999997872553 0.0
1.0500000000211873 0.9999999998240064 0.0
1.000000000004117 0.9999999999690851 0.0
0.9499999999865795 0.9999999998240064 0.0
0.8999999999950352 0.9999999997872553 0.0
0.8500000000079012 0.999999999764309 0.0
0.8000000000205109 0.9999999997529074 0.0
0.7500000000326037 0.9999999997482206 0.0
0.7000000000438794 0.9999999997487701 0.0
0.6500000000541363 0.9999999997535567 0.0
0.6000000000631753 0.9999999997619319 0.0
0.5500000000708087 0.9999999997733896 0.0
0.5000000000768594 0.9999999997875015 0.0
0.4500000000811595 0.9999999998038802 0.0
0.4000000000835484 0.9999999998221606 0.0
0.3500000000838686 0.9999999998419911 0.0
0.3000000000819567 0.999999999863029 0.0
0.2500000000776286 0.9999999998849394 0.0
0.2000000000706511 0.9999999999073994 0.0
0.1500000000606774 0.999999999930086 0.0
0.1000000000471112 0.9999999999528256 0.0
0.050000000028365 0.9999999999748882 0.0
0.0 0.9499999999997918 0.0
0.0 0.8999999999995836 0.0
0.0 0.8499999999996529 0.0
0.0 0.7999999999999998 0.0
0.0 0.7500000000003466 0.0
0.0 0.7000000000006934 0.0
0.0 0.6500000000010401 0.0
0.0 0.6000000000013869 0.0
0.0 0.5500000000017335 0.0
0.0 0.5000000000020587 0.0
0.0 0.4500000000018723 0.0
0.0 0.4000000000016644 0.0
0.0 0.3500000000014564 0.0
0.0 0.3000000000012483 0.0
0.0 0.2500000000010403 0.0
0.0 0.2000000000008322 0.0
0.0 0.1500000000006241 0.0
0.0 0.100000000000416 0.0
0.0 0.05000000000020799 0.0
0.04999999998623501 0.04999999998233843 0.0
0.04999999999079038 0.09999999998377343 0.0
0.04999999999363243 0.1499999999840001 0.0
0.049999999995548654 0.1999999999838529 0.0
0.049999999996956986 0.24999999998359235 0.0
0.04999999999803949 0.299999999983327 0.0
0.04999999999890381 0.34999999998310566 0.0
0.04999999999961925 0.399999999982953 0.0
0.050000000000236036 0.44999999998288315 0.0
0.05000000000079484 0.49999999998288364 0.0
0.05000000000133262 0.5499999999824896 0.0
0.05000000000188755 0.5999999999821775 0.0
0.05000000000250384 0.6499999999819692 0.0
0.05000000000323816 0.6999999999818625 0.0
0.05000000000416968 0.7499999999818413 0.0
0.050000000005420715 0.7999999999818629 0.0
0.05000000000719523 0.8499999999818206 0.0
0.050000000009951126 0.8999999999817168 0.0
0.05000000001454501 0.9499999999806692 0.0
0.09999999997199598 0.04999999995992853 0.0
0.0999999999816777 0.09999999996284976 0.0
0.09999999998742803 0.14999999996391808 0.0
0.09999999999134494 0.19999999996411522 0.0
0.09999999999417872 0.24999999996392325 0.0
0.09999999999633073 0.2999999999635853 0.0
0.09999999999802775 0.3499999999632285 0.0
0.09999999999941646 0.3999999999629225 0.0
0.10000000000060116 0.4499999999627072 0.0
0.10000000000166535 0.4999999999625862 0.0
0.10000000000268412 0.5499999999621195 0.0
0.10000000000373514 0.5999999999617646 0.0
0.10000000000490919 0.649999999961536 0.0
0.10000000000632367 0.6999999999614097 0.0
0.10000000000814595 0.7499999999613289 0.0
0.10000000001063376 0.7999999999611747 0.0
0.10000000001423602 0.8499999999607004 0.0
0.10000000001977896 0.8999999999596658 0.0
0.10000000002953434 0.9499999999570231 0.0
0.14999999996042535 0.04999999993728458 0.0
0.14999999997302965 0.09999999994007491 0.0
0.14999999998146846 0.14999999994170599 0.0
0.14999999998731353 0.1999999999423805 0.0
0.1499999999915675 0.24999999994249714 0.0
0.14999999999478306 0.2999999999423254 0.0
0.14999999999730035 0.3499999999420355 0.0
0.14999999999934271 0.3999999999417309 0.0
0.1500000000010706 0.44999999994147477 0.0
0.15000000000261168 0.4999999999412846 0.0
0.15000000000408067 0.5499999999407444 0.0
0.1500000000055961 0.5999999999402916 0.0
0.15000000000729635 0.6499999999399285 0.0
0.15000000000936176 0.6999999999396116 0.0
0.15000000001204736 0.7499999999392523 0.0
0.15000000001574057 0.7999999999386896 0.0
0.1500000000210645 0.8499999999376516 0.0
0.15000000002913108 0.8999999999359795 0.0
0.1500000000416703 0.9499999999334536 0.0
0.19999999995139245 0.049999999914319596 0.0
0.19999999996572507 0.09999999991677035 0.0
0.199999999976074 0.1499999999184887 0.0
0.1999999999835817 0.1999999999194787 0.0
0.1999999999891422 0.24999999991991215 0.0
0.1999999999933733 0.29999999991999027 0.0
0.19999999999668597 0.3499999999198702 0.0
0.1999999999993653 0.39999999991966156 0.0
0.20000000000162202 0.44999999991943623 0.0
0.20000000000362536 0.4999999999192191 0.0
0.2000000000055286 0.5499999999186145 0.0
0.20000000000748902 0.5999999999180393 0.0
0.20000000000969026 0.6499999999174895 0.0
0.20000000001236803 0.6999999999169136 0.0
0.20000000001584875 0.7499999999162198 0.0
0.20000000002060447 0.7999999999152634 0.0
0.20000000002734067 0.8499999999138483 0.0
0.20000000003707158 0.899999999912055 0.0
0.2000000000510859 0.9499999999098778 0.0
0.24999999994461186 0.04999999989134767 0.0
0.24999999995992964 0.09999999989336084 0.0
0.24999999997155184 0.14999999989497467 0.0
0.249999999980321 0.19999999989608894 0.0
0.24999999998698308 0.2499999998967513 0.0
0.24999999999212308 0.2999999998970662 0.0
0.24999999999617567 0.3499999998971445 0.0
0.24999999999946262 0.3999999998970763 0.0
0.25000000000223116 0.4499999998969261 0.0
0.250000000004685 0.4999999998967164 0.0
0.2500000000070098 0.5499999998960686 0.0
0.25000000000939593 0.5999999998953798 0.0
0.2500000000120627 0.6499999998946465 0.0
0.2500000000152862 0.6999999998938244 0.0
0.2500000000194352 0.7499999998928438 0.0
0.250000000025015 0.7999999998916127 0.0
0.25000000003270917 0.849999999890043 0.0
0.25000000004339157 0.8999999998883464 0.0
0.2500000000580531 0.9499999998866318 0.0
0.29999999993980314 0.049999999868618736 0.0
0.2999999999555978 0.0999999998701879 0.0
0.2999999999679959 0.14999999987160198 0.0
0.299999999977646 0.19999999987272185 0.0
0.29999999998515964 0.24999999987351804 0.0
0.29999999999105914 0.29999999987402115 0.0
0.2999999999957653 0.34999999987428715 0.0
0.2999999999996109 0.3999999998743737 0.0
0.30000000000286375 0.4499999998743256 0.0
0.30000000000575067 0.4999999998741558 0.0
0.3000000000084798 0.5499999998734983 0.0
0.3000000000112643 0.5999999998727317 0.0
0.3000000000143457 0.6499999998718574 0.0
0.3000000000180202 0.6999999998708494 0.0
0.3000000000226693 0.7499999998696723 0.0
0.30000000002878907 0.7999999998682964 0.0
0.30000000003700766 0.8499999998667176 0.0
0.30000000004807464 0.8999999998652324 0.0
0.30000000006280075 0.9499999998639954 0.0
0.3499999999368274 0.04999999984639737 0.0
0.3499999999527102 0.09999999984753814 0.0
0.34999999996549047 0.1499999998487165 0.0
0.349999999975684 0.19999999984977365 0.0
0.34999999998379494 0.24999999985063528 0.0
0.34999999999027814 0.29999999985127807 0.0
0.3499999999955231 0.34999999985171115 0.0
0.3499999999998547 0.39999999985195533 0.0
0.3500000000035452 0.4499999998520313 0.0
0.35000000000683174 0.499999999851937 0.0
0.35000000000993364 0.5499999998513152 0.0
[...]
POINT_DATA 861
SCALARS DISPL_step0 float 1
LOOKUP_TABLE default
0.0
0.0
0.0
0.0
1.6679153299226793e-11
2.945982423444123e-11
4.110293829384743e-11
5.2004769877555564e-11
6.236151325509916e-11
7.222172762142598e-11
8.158749310366046e-11
9.043538137911699e-11
9.873040315104064e-11
1.0643312663416583e-10
1.1350428676635946e-10
1.1990771927395765e-10
1.2561216460628286e-10
1.305921809615198e-10
1.348283287239082e-10
1.3830676842036955e-10
1.4101842918308284e-10
1.429579288345915e-10
1.4412244416382144e-10
1.4451072829174658e-10
1.4412244416381953e-10
1.4295792883458125e-10
1.4101842918306002e-10
1.3830676842033212e-10
1.348283287238559e-10
1.3059218096145382e-10
1.256121646062045e-10
1.199077192738685e-10
1.135042867662618e-10
1.0643312663406202e-10
9.873040315093241e-11
9.043538137900615e-11
8.158749310354879e-11
7.222172762131497e-11
6.23615132549915e-11
5.2004769877465486e-11
4.110293829377985e-11
2.945982423439619e-11
1.667915329920595e-11
0.0
0.0
0.0
0.0
0.0
0.0
0.0
0.0
0.0
0.0
0.0
0.0
0.0
0.0
0.0
0.0
0.0
0.0
0.0
1.7606456558368295e-11
3.0975786357369725e-11
4.301019421336724e-11
5.4120410660130105e-11
6.45025989708734e-11
7.419105566944636e-11
8.316440759507949e-11
9.136640885698528e-11
9.871890469493318e-11
1.0512693431741332e-10
1.1048012443557267e-10
1.1465035646911947e-10
1.1748470528050815e-10
1.1878913186475178e-10
1.1829988116280863e-10
1.1558831944790573e-10
1.1000798578882563e-10
9.936402230307532e-11
8.252951178604764e-11
1.442695404226632e-11
8.252951178673331e-11
9.936402230390559e-11
1.1000798578979084e-10
1.1558831944897614e-10
1.1829988116396033e-10
1.1878913186595562e-10
1.1748470528173476e-10
1.1465035647033871e-10
1.104801244367551e-10
1.0512693431853075e-10
9.871890469595935e-11
9.136640885789626e-11
8.316440759585299e-11
7.419105567006223e-11
6.450259897132146e-11
5.412041066049488e-11
4.301019421365366e-11
3.0975786357573024e-11
1.7606456558480943e-11
0.0
0.0
0.0
0.0
0.0
0.0
0.0
0.0
0.0
0.0
0.0
0.0
0.0
0.0
0.0
0.0
0.0
0.0
0.0
1.0501015622107861e-11
8.855788131514388e-12
8.289326179308542e-12
8.173051061388487e-12
8.245025822161117e-12
8.390025421449643e-12
8.552073653672238e-12
8.70263928922534e-12
8.826607594194617e-12
8.915748295049532e-12
8.965772443583143e-12
8.975433752261753e-12
8.947283823737804e-12
8.890517054549085e-12
8.827535931632173e-12
8.808472299578518e-12
8.944930729498739e-12
9.505381276527428e-12
1.1158355119449067e-11
2.2842531404536255e-11
1.9463933793405854e-11
1.806971310318576e-11
1.7567015544637903e-11
1.7492083998032574e-11
1.7612520856704238e-11
1.780932755633485e-11
1.8019184900286137e-11
1.820770897739654e-11
1.8356441728625622e-11
1.8456832355759984e-11
1.8508399050954496e-11
1.8520335491334612e-11
1.8517416264892787e-11
1.8553248937408505e-11
1.8738207141795475e-11
1.9301389655483703e-11
2.0719906717517002e-11
2.4154936779561613e-11
3.461837343172592e-11
3.078631840891519e-11
2.877047664557038e-11
2.7858030761966457e-11
2.7541402727378206e-11
2.7535019580329173e-11
2.767723933758768e-11
2.7876857527408872e-11
2.808251435089106e-11
2.826650366672127e-11
2.8416837187697556e-11
2.8534722720691687e-11
2.8636665234950906e-11
2.8762160129268932e-11
2.899012117651456e-11
2.9470969835309e-11
3.0484417970890524e-11
3.2549252706193164e-11
3.641817789041921e-11
4.5971110081150365e-11
4.211447038624905e-11
3.98569662969883e-11
3.8660080142043564e-11
3.811769996407564e-11
3.795373094338554e-11
3.799699555206795e-11
3.81440401724022e-11
3.833414026279128e-11
3.85340470950803e-11
3.8729903485239696e-11
3.892445456826786e-11
3.9139005371648366e-11
3.942087128873189e-11
3.985853021043358e-11
4.0607691657826414e-11
4.193232838951664e-11
4.423734276826444e-11
4.8085672820534076e-11
5.6903305269036785e-11
5.3261656400770685e-11
5.097969619239337e-11
4.964910631186353e-11
4.894700099269074e-11
4.864163234995742e-11
4.8576618645065415e-11
4.8651912974889246e-11
4.880646580162081e-11
4.9006337361412786e-11
4.923772452190497e-11
4.9504212163947435e-11
4.982800751015001e-11
5.0255616626322806e-11
5.0868997992239254e-11
5.1803466301999695e-11
5.326986852253682e-11
5.5578868626667944e-11
5.915149643636718e-11
6.741223966784833e-11
6.410733169780404e-11
6.193702272465565e-11
6.058226653592149e-11
5.979162681946929e-11
5.937944088121035e-11
5.921590457605146e-11
5.921460668938269e-11
5.932148829406027e-11
5.950633970559509e-11
5.975729784317851e-11
6.007820111774041e-11
6.04887854702617e-11
6.10280005634405e-11
6.176103408244249e-11
6.27904497326311e-11
6.427211614316489e-11
6.643479973219585e-11
6.960040873899614e-11
7.746224531575161e-11
7.456004919427052e-11
7.258102054091297e-11
7.127659033494212e-11
7.04535296749234e-11
6.996902639675856e-11
6.972207154467088e-11
6.964468303614934e-11
6.96942436209805e-11
6.984748179357906e-11
7.009613605246855e-11
7.044429516695708e-11
7.090746702014307e-11
7.151366260054986e-11
7.230708630435283e-11
7.335554029309142e-11
7.476305415481979e-11
7.668937751027423e-11
7.937505181350515e-11
8.700385399845334e-11
8.453521915945215e-11
8.279193129295269e-11
8.158403132247584e-11
8.076718680989227e-11
8.023627079512832e-11
7.991789224992874e-11
7.976358766386125e-11
7.974419768624346e-11
7.984534375464283e-11
8.006381540145274e-11
8.04047244555791e-11
8.087946593868675e-11
8.150483919646825e-11
8.230420888410858e-11
8.331230449746044e-11
8.458605054633105e-11
8.622385714321155e-11
8.839389919982688e-11
9.598129329560551e-11
9.395360497764375e-11
9.24664947322662e-11
9.138038652201217e-11
9.059247163017272e-11
9.003030553993975e-11
8.964548285819416e-11
8.940829022762719e-11
8.930340609171284e-11
8.932634387779742e-11
8.948025331514442e-11
8.977279236726726e-11
9.021301532297442e-11
9.080866481680978e-11
9.156497367429895e-11
9.248706434134095e-11
9.358895731659708e-11
9.49123954834465e-11
9.65570126752528e-11
1.0433840476413709e-10
1.0274212153871099e-10
1.0151471381291628e-10
1.0056012351634068e-10
9.9810861123331e-11
9.922242615790146e-11
9.876825243952747e-11
9.843561463510414e-11
9.822238829111403e-11
9.813426014030567e-11
9.818188932265098e-11
9.837756170697561e-11
9.873109318583885e-11
9.924523868866007e-11
9.991180439411846e-11
1.007109910256157e-10
1.0161784157048843e-10
1.0262003941000112e-10
1.037496605057377e-10
1.1202251013473604e-10
1.108355771075571e-10
1.0985921390770856e-10
1.090345187953446e-10
1.0832369064233285e-10
1.077056463651627e-10
1.0717225043169661e-10
1.0672538540201649e-10
1.0637470281763066e-10
1.061356382900967e-10
1.0602711847883538e-10
1.060683109717711e-10
1.0627383140846619e-10
1.0664725449140293e-10
1.0717385612148334e-10
1.078154967440495e-10
1.085127651243248e-10
1.0920075420004102e-10
1.0984271385875248e-10
1.1898703802182302e-10
1.1817816055802098e-10
1.174354725731891e-10
1.1673104747819367e-10
1.1605146068953019e-10
1.1539463962996139e-10
1.1476727443984727e-10
1.1418295497720717e-10
1.1366090591968093e-10
1.132249570533759e-10
1.1290216910500945e-10
1.1272029732467123e-10
1.1270305622751383e-10
1.1286216978615933e-10
1.1318622179914815e-10
1.1362882673026387e-10
1.1410322252254332e-10
1.1449325554028987e-10
1.1468973291915363e-10
1.251931016314629e-10
1.247243672526201e-10
1.2419199303118005e-10
1.235930205047296e-10
1.229333489406296e-10
1.2222562000592239e-10
1.2148759107893053e-10
1.2074117489211836e-10
1.2001210345180562e-10
1.193299785946276e-10
1.1872823715043264e-10
1.182431969475421e-10
1.1791077406479278e-10
1.177587744915618e-10
1.1779235158234193e-10
1.1797346468589888e-10
1.182013105296288e-10
1.1831270084299756e-10
1.1811888200122975e-10
1.3061016332828612e-10
1.3043920775943396e-10
1.3009000797418105e-10
1.295788918954118e-10
1.289263639013792e-10
1.2815568196364557e-10
1.2729188153999307e-10
1.2636145385154788e-10
1.253927440795323e-10
1.2441701723004684e-10
1.2346997633617724e-10
1.2259317802143664e-10
1.2183405080734516e-10
1.212417204620034e-10
1.2085365771468626e-10
1.2066565893643995e-10
1.2059181691362074e-10
1.2043397059670353e-10
1.1991643838022322e-10
1.3521588751291785e-10
1.3529767233021744e-10
1.351025327222656e-10
1.3466094200567034e-10
1.34003776500592e-10
1.3316118791891619e-10
1.3216191286190442e-10
1.3103322897587172e-10
1.2980170728931367e-10
1.2849490006991987e-10
1.2714410018784887e-10
1.2578820863424204e-10
1.2447828728558115e-10
1.232809445205136e-10
1.2227476087505546e-10
1.2152657837612468e-10
1.2101672779430446e-10
1.2056342820724016e-10
1.1978823983048655e-10
1.3899531017027426e-10
1.3928351767050892e-10
1.39212753307965e-10
1.3882324193164168e-10
1.3815265790703093e-10
1.3723492828084873e-10
1.3609947315518244e-10
1.3477103706705696e-10
1.332702726223917e-10
1.3161532077534924e-10
1.2982480065698153e-10
1.2792287684874843e-10
1.2594734130401266e-10
1.2396155223054593e-10
1.2206916686097412e-10
1.2042129515663253e-10
1.1917918295528266e-10
1.1826673148039833e-10
1.172985984968658e-10
1.4193949997180979e-10
1.4238753213710215e-10
1.4241187034551221e-10
1.4205898116408508e-10
1.4137055943133487e-10
1.4038200800900123e-10
1.391213423030427e-10
1.3760855688565297e-10
1.358555292444195e-10
1.3386664446379229e-10
1.316405530869356e-10
1.2917392280168435e-10
1.2646891945580586e-10
1.2354778281211008e-10
1.2048080877957017e-10
1.174365024754256e-10
1.1475499056568619e-10
1.1294970012783411e-10
1.1158347961042924e-10
1.440439349621939e-10
1.4460551320898715e-10
1.4469663449067326e-10
1.4436740293761287e-10
1.436615967727542e-10
1.4261473222284013e-10
1.4125252245215489e-10
1.3958962144306106e-10
1.3762856892092292e-10
1.3535890357995014e-10
1.327565241943281e-10
1.2978364218588153e-10
1.2639030700026262e-10
1.2252020533513322e-10
1.181277744095738e-10
1.132285674199492e-10
1.0803459002050333e-10
1.0338742183405241e-10
1.0144713362936262e-10
1.453068525273011e-10
1.4593624416443665e-10
1.4606689237883268e-10
1.4575072300559766e-10
1.4503241260185862e-10
1.4394711497521402e-10
1.425185503585553e-10
1.407572227509273e-10
1.3865852651255735e-10
1.3620046271019031e-10
1.3334059702462217e-10
1.3001172347950558e-10
1.261154181385154e-10
1.2151214255256199e-10
1.1600643690420275e-10
1.0932445393648796e-10
1.0111158141157835e-10
9.099059517298653e-11
8.063246743978498e-11
1.4572783420317885e-10
1.46379770779581e-10
1.4652349529808672e-10
1.462114771781555e-10
1.4548862979009817e-10
1.4438990828931986e-10
1.4293825607842693e-10
1.411426166516247e-10
1.3899570748186786e-10
1.3647116814612854e-10
1.335195055872318e-10
1.3006186820645914e-10
1.259798309570747e-10
1.2109753843107237e-10
1.1514739051758325e-10
1.0769958598986973e-10
9.797134850885455e-11
8.435000324145206e-11
6.119734806942912e-11
1.4530685252728484e-10
1.4593624416440545e-10
1.4606689237878555e-10
1.4575072300553386e-10
1.4503241260177698e-10
1.4394711497511337e-10
1.4251855035843428e-10
1.4075722275078464e-10
1.386585265123917e-10
1.3620046270999998e-10
1.3334059702440325e-10
1.3001172347925513e-10
1.2611541813823e-10
1.21512142552237e-10
1.1600643690383141e-10
1.0932445393606021e-10
1.0111158141107782e-10
9.099059517238877e-11
8.063246743911341e-11
1.44043934962156e-10
1.4460551320892082e-10
1.446966344905771e-10
1.4436740293748502e-10
1.436615967725927e-10
1.426147322226427e-10
1.4125252245191906e-10
1.395896214427843e-10
1.3762856892060257e-10
1.3535890357958326e-10
1.3275652419390714e-10
1.2978364218540133e-10
1.263903069997174e-10
1.225202053345161e-10
1.1812777440887696e-10
1.1322856741916509e-10
1.080345900196307e-10
1.0338742183312415e-10
1.0144713362847385e-10
1.4193949997174827e-10
1.4238753213700069e-10
1.4241187034536872e-10
1.420589811638972e-10
1.4137055943109995e-10
1.4038200800871583e-10
1.391213423027039e-10
1.3760855688525745e-10
1.3585552924396364e-10
1.3386664446327204e-10
1.3164055308634145e-10
1.2917392280101093e-10
1.2646891945504806e-10
1.2354778281126377e-10
1.204808087786347e-10
1.1743650247440852e-10
1.1475499056461401e-10
1.1294970012676546e-10
1.1158347960941274e-10
1.389953101701892e-10
1.3928351767037435e-10
1.3921275330777864e-10
1.388232419314004e-10
1.381526579067316e-10
1.3723492828048795e-10
1.3609947315475668e-10
1.3477103706656238e-10
1.3327027262182436e-10
1.316153207747048e-10
1.2982480065625075e-10
1.2792287684792738e-10
1.25947341303099e-10
1.2396155222954122e-10
1.2206916685988684e-10
1.2042129515548262e-10
1.1917918295410615e-10
1.1826673147923792e-10
1.1729859849574824e-10
1.3521588751281135e-10
1.3529767233005444e-10
1.3510253272204295e-10
1.3466094200538512e-10
1.3400377650024067e-10
1.331611879184953e-10
1.3216191286141044e-10
1.3103322897530089e-10
1.2980170728866214e-10
1.2849490006918404e-10
1.2714410018702052e-10
1.2578820863331953e-10
1.2447828728456623e-10
1.23280944519413e-10
1.2227476087388345e-10
1.2152657837490536e-10
1.210167277930685e-10
1.205634282060169e-10
1.1978823982929466e-10
1.306101633281623e-10
1.3043920775924862e-10
1.3009000797393085e-10
1.2957889189509348e-10
1.2892636390098977e-10
1.2815568196318157e-10
1.2729188153945106e-10
1.2636145385092465e-10
1.2539274407882463e-10
1.2441701722925205e-10
1.2346997633528913e-10
1.2259317802045605e-10
1.2183405080627686e-10
1.2124172046085726e-10
1.2085365771347845e-10
1.206656589351922e-10
1.205918169123573e-10
1.2043397059544495e-10
1.19916438378985e-10
1.251931016313258e-10
1.2472436725241929e-10
1.241919930309115e-10
1.235930205043902e-10
1.2293334894021632e-10
1.2222562000543244e-10
1.214875910783608e-10
1.2074117489146633e-10
1.200121034510691e-10
1.1932997859380444e-10
1.1872823714951943e-10
1.182431969465415e-10
1.1791077406371126e-10
1.1775877449040997e-10
1.1779235158113492e-10
1.1797346468465482e-10
1.182013105283666e-10
1.183127008417322e-10
1.1811888199997525e-10
1.1898703802167743e-10
1.181781605578117e-10
1.174354725729117e-10
1.1673104747784506e-10
1.1605146068910745e-10
1.1539463962946224e-10
1.147672744392697e-10
1.1418295497654898e-10
1.1366090591894057e-10
1.1322495705255277e-10
1.129021691041018e-10
1.1272029732368316e-10
1.1270305622645216e-10
1.1286216978503416e-10
1.1318622179797268e-10
1.136288267290525e-10
1.1410322252131055e-10
1.1449325553904747e-10
1.1468973291791371e-10
1.1202251013458683e-10
1.1083557710734678e-10
1.0985921390743181e-10
1.0903451879499812e-10
1.0832369064191427e-10
1.0770564636467024e-10
1.0717225043112896e-10
1.067253854013724e-10
1.0637470281690932e-10
1.0613563828929803e-10
1.0602711847795986e-10
1.0606831097082299e-10
1.0627383140745234e-10
1.0664725449033219e-10
1.071738561203664e-10
1.0781549674289793e-10
1.0851276512314943e-10
1.0920075419885077e-10
1.0984271385755777e-10
1.0433840476398914e-10
1.0274212153850686e-10
1.0151471381264921e-10
1.0056012351600735e-10
9.981086112292917e-11
9.922242615743011e-11
9.876825243898595e-11
9.843561463449203e-11
9.822238829043146e-11
9.813426013955308e-11
9.818188932183035e-11
9.837756170609147e-11
9.873109318489695e-11
9.924523868766804e-11
9.991180439308447e-11
1.0071099102454857e-10
1.0161784156939697e-10
1.0262003940889141e-10
1.0374966050461693e-10
9.598129329546319e-11
9.395360497745187e-11
9.246649473201681e-11
9.138038652170135e-11
9.059247162979875e-11
9.003030553950186e-11
8.964548285769268e-11
8.94082902270626e-11
8.930340609108602e-11
8.932634387710912e-11
8.948025331439814e-11
8.977279236646699e-11
9.021301532212515e-11
9.080866481591745e-11
9.156497367336976e-11
9.248706434038157e-11
9.358895731561408e-11
9.49123954824437e-11
9.655701267423317e-11
8.70038539983207e-11
8.453521915927833e-11
8.279193129272794e-11
8.15840313221961e-11
8.07671868095553e-11
8.023627079473442e-11
7.991789224947902e-11
7.976358766335703e-11
7.974419768568617e-11
7.984534375403414e-11
8.006381540079654e-11
8.04047244548793e-11
8.087946593794744e-11
8.150483919569364e-11
8.230420888330332e-11
8.331230449662907e-11
8.458605054547889e-11
8.62238571423394e-11
8.839389919893296e-11
7.746224531563198e-11
7.45600491941195e-11
7.258102054071866e-11
7.127659033469966e-11
7.045352967463093e-11
6.996902639641686e-11
6.97220715442817e-11
6.964468303571526e-11
6.969424362050364e-11
6.984748179306154e-11
7.00961360519152e-11
7.04442951663711e-11
7.090746701952782e-11
7.151366259990804e-11
7.230708630368748e-11
7.335554029240565e-11
7.476305415411767e-11
7.668937750955367e-11
7.937505181275897e-11
6.741223966774496e-11
6.410733169767993e-11
6.193702272449641e-11
6.058226653572115e-11
5.979162681922643e-11
5.937944088092645e-11
5.921590457572963e-11
5.921460668902595e-11
5.932148829367141e-11
5.950633970517734e-11
5.975729784273684e-11
6.007820111727767e-11
6.048878546978043e-11
6.10280005629425e-11
6.176103408192941e-11
6.279044973210475e-11
6.427211614262853e-11
6.643479973164471e-11
6.960040873841723e-11
5.690330526895315e-11
5.326165640067641e-11
5.097969619227135e-11
4.964910631170693e-11
4.894700099249885e-11
4.864163234973285e-11
4.857661864481207e-11
4.865191297461108e-11
4.88064658013217e-11
4.9006337361096177e-11
4.923772452157621e-11
4.9504212163608924e-11
4.98280075098034e-11
5.025561662596927e-11
5.086899799187972e-11
5.180346630163516e-11
5.326986852216974e-11
5.557886862629209e-11
5.915149643596355e-11
4.59711100810957e-11
4.2114470386186936e-11
3.985696629689916e-11
3.866008014192069e-11
3.811769996391975e-11
3.795373094320051e-11
3.799699555185884e-11
3.8144040172173485e-11
3.833414026254723e-11
3.8534047094824785e-11
3.872990348497758e-11
3.892445456800102e-11
3.9139005371377717e-11
3.9420871288458045e-11
3.985853021015643e-11
4.0607691657546666e-11
4.193232838923663e-11
4.4237342767978376e-11
4.808567282022003e-11
3.4618373431702586e-11
3.078631840888398e-11
2.877047664551091e-11
2.7858030761874617e-11
2.7541402727257186e-11
2.7535019580183674e-11
2.7677239337423028e-11
2.7876857527230153e-11
2.808251435070202e-11
2.8266503666525436e-11
2.8416837187499518e-11
2.8534722720492766e-11
2.8636665234751216e-11
2.8762160129068606e-11
2.8990121176312827e-11
2.947096983510618e-11
3.0484417970689073e-11
3.254925270598837e-11
3.641817789018798e-11
2.2842531404538413e-11
1.9463933793395014e-11
1.8069713103147058e-11
1.7567015544572672e-11
1.7492083997944957e-11
1.761252085659934e-11
1.7809327556217192e-11
1.8019184900159647e-11
1.8207708977264443e-11
1.8356441728491056e-11
1.845683235562628e-11
1.850839905082239e-11
1.8520335491203933e-11
1.8517416264763323e-11
1.855324893727959e-11
1.8738207141666846e-11
1.9301389655356928e-11
2.0719906717390715e-11
2.415493677941398e-11
1.0501015622119463e-11
8.855788131508695e-12
8.289326179285355e-12
8.173051061350307e-12
8.245025822111168e-12
8.390025421390984e-12
8.552073653607539e-12
8.702639289156649e-12
8.826607594124127e-12
8.915748294979049e-12
8.965772443514566e-12
8.975433752195572e-12
8.947283823673537e-12
8.890517054486581e-12
8.827535931570921e-12
8.808472299518174e-12
8.944930729440247e-12
9.505381276470793e-12
1.1158355119385022e-11

