# vtk DataFile Version 2.0
mesh vtk view
ASCII
DATASET UNSTRUCTURED_GRID
POINTS 3 double
0.0 0.0 0.0
17.928932188134524 -10.0 0.0
0.0 17.928932188134524 0.0

CELLS 3 9
2 0 1
2 1 2
2 2 0

CELL_TYPES 3
3
3
3

CELL_DATA 3
SCALARS CellEntityIds float 1
LOOKUP_TABLE default
0.0
0.0
0.0
