# vtk DataFile Version 2.0
mesh vtk view
ASCII
DATASET UNSTRUCTURED_GRID
POINTS 101 double
-0.009579257183644259 0.0 0.0
2.0 0.0 0.0
0.0199999999999621 -9.709864812718083e-05 0.0
0.030420742816367575 -0.00037794643340706457 0.0
0.04162505162530121 -0.0008268756662490689 0.0
0.053612474713929326 -0.0014282340978999124 0.0
0.06638186643569419 -0.002166401896410869 0.0
0.07993108244186095 -0.0030258144205098426 0.0
0.09425670464907158 -0.0039909901974180045 0.0
0.10935379585972062 -0.005046563512781024 0.0
0.12521568390361368 -0.006177321024079017 0.0
0.14183377511172812 -0.007368241813306431 0.0
0.15919739686712142 -0.008604540300529791 0.0
0.17729366890512 -0.009871711447269761 0.0
0.19610740295605428 -0.01115557768761889 0.0
0.2156210302399801 -0.012442337035690114 0.0
0.23581455623524408 -0.013718611830448731 0.0
0.2566655420523704 -0.014971497593273259 0.0
0.2781491116526606 -0.016188611489733957 0.0
0.30023798405802826 -0.0173581399050675 0.0
0.3229025296061838 -0.018468884662663727 0.0
0.3461108492138637 -0.019510307436522153 0.0
0.3698288755215605 -0.02047257193203383 0.0
0.3940204947071909 -0.021346583434526032 0.0
0.4186476876736618 -0.0221240253516937 0.0
0.44367068923764325 -0.022797392404228588 0.0
0.46904816387447484 -0.023360020148531512 0.0
0.4947373965078506 -0.023806110546229185 0.0
0.5206944967732666 -0.024130753327172808 0.0
0.5468746151318518 -0.024329942925523637 0.0
0.5732321691665593 -0.02440059080226875 0.0
0.5997210783562974 -0.024340533001891686 0.0
0.6262950055957247 -0.024148532825772836 0.0
0.652907603709562 -0.023824278540029022 0.0
0.6795127652005316 -0.02336837607073996 0.0
0.7060648734696815 -0.02278233667465792 0.0
0.7325190537569619 -0.022068559608369474 0.0
0.7588314220686146 -0.021230309853280203 0.0
0.7849593303861021 -0.020271690987538414 0.0
0.8108616064890124 -0.019197613328909947 0.0
0.8364987867713092 -0.018013757504483828 0.0
0.861833340486417 -0.016726533633743053 0.0
0.886829883921533 -0.015343036340807005 0.0
0.9114553830750382 -0.01387099583937122 0.0
0.9356793434924604 -0.012318725359881252 0.0
0.9594739860057288 -0.01069506521262879 0.0
0.9828144072169688 -0.009009323802612207 0.0
1.0056787236712597 -0.00727121593203223 0.0
1.0280481987720633 -0.005490798744080043 0.0
1.0499073516077837 -0.00367840567711791 0.0
1.0712440469774864 -0.0018445788113609788 0.0
1.092049566027557 -6.650767877965026e-13 0.0
1.112318657038135 0.0018445788100398051 0.0
1.1320495660279166 0.003678405675815157 0.0
1.1512440469781293 0.0054907987428007956 0.0
1.1699073516086769 0.007271215930781259 0.0
1.1880481987731941 0.009009323801394083 0.0
1.2056787236726128 0.010695065211447611 0.0
1.222814407218528 0.012318725358740705 0.0
1.2394739860074757 0.013870995838274568 0.0
1.2556793434943732 0.015343036339756963 0.0
1.2714553830770978 0.01672653363274205 0.0
1.2868298839237182 0.018013757503533723 0.0
1.3018333404887055 0.019197613328012102 0.0
1.3164987867736808 0.020271690986693812 0.0
1.3308616064914454 0.021230309852489335 0.0
1.344959330388576 0.022068559607632356 0.0
1.3588314220711066 0.022782336673974144 0.0
1.3725190537594525 0.02336837607010872 0.0
1.3860648734721512 0.023824278539449132 0.0
1.3995127652029664 0.024148532825242822 0.0
1.412907603711945 0.02434053300140975 0.0
1.4262950055980437 0.02440059080183287 0.0
1.43972107835854 0.024329942925131597 0.0
1.453232169168719 0.024130753326822255 0.0
1.4668746151339211 0.02380611054591774 0.0
1.4806944967752431 0.023360020148256673 0.0
1.4947373965097273 0.022797392403987773 0.0
1.509048163876249 0.022124025351484316 0.0
1.5236706892393104 0.0213465834343455 0.0
1.5386476876752238 0.020472571931879614 0.0
1.554020494708648 0.019510307436391802 0.0
1.5698288755229157 0.018468884662554853 0.0
1.5861108492151164 0.017358139904977882 0.0
1.6029025296073358 0.01618861148966128 0.0
1.6202379840590804 0.014971497593215501 0.0
1.6381491116536218 0.013718611830403933 0.0
1.656665542053238 0.012442337035656446 0.0
1.6758145562360154 0.011155577687594623 0.0
1.695621030240665 0.009871711447254143 0.0
1.716107402956662 0.008604540300522115 0.0
1.7372936689056555 0.007368241813305333 0.0
1.7591973968675896 0.006177321024082872 0.0
1.7818337751121314 0.005046563512788368 0.0
1.8052156839039537 0.003990990197427458 0.0
1.8293537958600004 0.0030258144205200033 0.0
1.8542567046492962 0.002166401896420394 0.0
1.8799310824420332 0.0014282340979079773 0.0
1.9063818664358132 0.0008268756662551766 0.0
1.933612474713997 0.00037794643341091923 0.0
1.9616250516253244 9.709864812850476e-05 0.0

CELLS 100 300
2 0 2
2 2 3
2 3 4
2 4 5
2 5 6
2 6 7
2 7 8
2 8 9
2 9 10
2 10 11
2 11 12
2 12 13
2 13 14
2 14 15
2 15 16
2 16 17
2 17 18
2 18 19
2 19 20
2 20 21
2 21 22
2 22 23
2 23 24
2 24 25
2 25 26
2 26 27
2 27 28
2 28 29
2 29 30
2 30 31
2 31 32
2 32 33
2 33 34
2 34 35
2 35 36
2 36 37
2 37 38
2 38 39
2 39 40
2 40 41
2 41 42
2 42 43
2 43 44
2 44 45
2 45 46
2 46 47
2 47 48
2 48 49
2 49 50
2 50 51
2 51 52
2 52 53
2 53 54
2 54 55
2 55 56
2 56 57
2 57 58
2 58 59
2 59 60
2 60 61
2 61 62
2 62 63
2 63 64
2 64 65
2 65 66
2 66 67
2 67 68
2 68 69
2 69 70
2 70 71
2 71 72
2 72 73
2 73 74
2 74 75
2 75 76
2 76 77
2 77 78
2 78 79
2 79 80
2 80 81
2 81 82
2 82 83
2 83 84
2 84 85
2 85 86
2 86 87
2 87 88
2 88 89
2 89 90
2 90 91
2 91 92
2 92 93
2 93 94
2 94 95
2 95 96
2 96 97
2 97 98
2 98 99
2 99 100
2 100 1

CELL_TYPES 100
3
3
3
3
3
3
3
3
3
3
3
3
3
3
3
3
3
3
3
3
3
3
3
3
3
3
3
3
3
3
3
3
3
3
3
3
3
3
3
3
3
3
3
3
3
3
3
3
3
3
3
3
3
3
3
3
3
3
3
3
3
3
3
3
3
3
3
3
3
3
3
3
3
3
3
3
3
3
3
3
3
3
3
3
3
3
3
3
3
3
3
3
3
3
3
3
3
3
3
3

POINT_DATA 101
SCALARS MODE2_619.3044_Hz float 1
LOOKUP_TABLE default
0.02667832639425423
0.0
0.00027042069938373756
0.026699083007919962
0.051226201980524154
0.07359708701882048
0.09382103666866715
0.11191006164382647
0.12787948854935227
0.14174868299595036
0.15354173192877954
0.16328807272750234
0.17102307352289706
0.17678857506283804
0.1806334097950444
0.1826139209232872
0.18279451462093835
0.18124829451165347
0.1780578524601111
0.17331632962095828
0.1671289269340401
0.1596151531053225
0.15091228306524565
0.14118081837980806
0.13061329096678734
0.11944868054755584
0.10799616053171027
0.09667354918822504
0.08606517552256139
0.07699038186628254
0.07052139906996478
0.0677930767341908
0.069501413157734
0.07546310527553234
0.0847864704938791
0.09641173806822753
0.10945160536274122
0.12325377272168135
0.13735162014845098
0.15140445605845224
0.16515386844506685
0.17839589591397076
0.19096401355270906
0.2027188105813003
0.21354169713990498
0.22333103645466829
0.23199975169910012
0.23947384093246493
0.24569145754367722
0.2506023455246499
0.25416749795121163
0.2563589555978672
0.25715969339290257
0.2565635628299336
0.2545752729356508
0.25121040379507276
0.24649545700115738
0.24046795850898092
0.23317664320751727
0.224681769745335
0.21505564287344375
0.2043834655890343
0.19276471631338998
0.18031536755705324
0.16717146778713352
0.15349495947738576
0.13948320450631146
0.1253846671393985
0.11152460413669278
0.09834571135528687
0.08646546035877668
0.07673032312149616
0.07018092003459671
0.06776358520223974
0.0697975269831806
0.07570959356788932
0.08439972464774075
0.09476895026186898
0.10595814165819112
0.11735092830459416
0.1285076113813822
0.13910468075092816
0.14889365925404818
0.15767548617693478
0.16528493749394357
0.17158112105142395
0.17644159358226474
0.17975864487127408
0.18143689083568149
0.18139166359648984
0.17954788762881996
0.17583924915808627
0.17020753655747473
0.16260207255394285
0.15297918586723497
0.1413016869830855
0.12753832390979083
0.11166320132919325
0.09365515225078395
0.07349705764895377
0.05117512820322159

