# vtk DataFile Version 2.0
mesh vtk view
ASCII
DATASET UNSTRUCTURED_GRID
POINTS 101 double
-0.001064361909293806 0.0 0.0
2.0 0.0 0.0
0.0199999999999621 -1.0788738680797865e-05 0.0
0.03893563809064043 -4.199404815634049e-05 0.0
0.05795833906937642 -9.187507402767429e-05 0.0
0.07706805274585286 -0.00015869267754443464 0.0
0.09626465182600938 -0.00024071132182342978 0.0
0.11554789804887886 -0.0003362016022788713 0.0
0.134917411627426 -0.00044344335526866704 0.0
0.15437264398413741 -0.0005607292791978913 0.0
0.173912853766765 -0.0006863690026754461 0.0
0.19353708612319495 -0.0008186935348118255 0.0
0.21324415520710024 -0.0009560600333921987 0.0
0.23303262987796008 -0.0010968568274744175 0.0
0.2529008225502465 -0.0012395086319576542 0.0
0.2728467811372992 -0.0013824818928544565 0.0
0.29286828402560994 -0.0015242902033831918 0.0
0.3129628380052388 -0.001663499732585917 0.0
0.33312767907188584 -0.0017987346099704391 0.0
0.35335977600576357 -0.0019286822116741664 0.0
0.3736558366221735 -0.0020520982958515243 0.0
0.3940123165785304 -0.00216781193739135 0.0
0.41442543061266707 -0.0022747302146704246 0.0
0.4348911660776853 -0.002371842603836225 0.0
0.4554052986294634 -0.0024582250390770767 0.0
0.4759634099142984 -0.0025330436004698423 0.0
0.49656090709611667 -0.002595557794281278 0.0
0.5171930440553287 -0.002645123394025464 0.0
0.5378549440847675 -0.002681194814130311 0.0
0.5585416239023362 -0.0027033269917248475 0.0
0.5792480187950296 -0.002711176755807638 0.0
0.5999690087049485 -0.0027045036668768532 0.0
0.620699445064833 -0.0026831703139747584 0.0
0.6414341781885409 -0.0026471420600032236 0.0
0.662168085020819 -0.0025964862300822166 0.0
0.6828960970506727 -0.002531370741628657 0.0
0.7036132281936518 -0.0024520621787077184 0.0
0.7243146024504502 -0.002358923317031133 0.0
0.7449954811523414 -0.0022524101097264894 0.0
0.7656512896081685 -0.00213306814765666 0.0
0.7862776429728162 -0.0020015286116093134 0.0
0.8068703711633318 -0.0018585037370825608 0.0
0.8274255426560706 -0.0017047818156452222 0.0
0.8479394870064081 -0.001541221759930135 0.0
0.8684088159416254 -0.0013687472622090275 0.0
0.8888304428874922 -0.0011883405791809764 0.0
0.9092016007998004 -0.0010010359780680228 0.0
0.9295198581835585 -0.0008079128813369142 0.0
0.949783133194707 -0.0006100887493422268 0.0
0.9699897057319575 -0.00040871174190198985 0.0
0.9901382274396503 -0.0002049532012623309 0.0
1.0102277295562923 -7.389742086627805e-14 0.0
1.030257628557495 0.00020495320111553383 0.0
1.0502277295564069 0.0004087117417572395 0.0
1.0701382274398108 0.0006100887492000882 0.0
1.08998970573214 0.0008079128811979173 0.0
1.1097831331949113 0.0010010359779326755 0.0
1.1295198581837829 0.0011883405790497341 0.0
1.1492016008000425 0.0013687472620823 0.0
1.1688304428877507 0.0015412217598082848 0.0
1.1884088159418966 0.001704781815528551 0.0
1.2079394870066908 0.0018585037369713384 0.0
1.2274255426563625 0.0020015286115037463 0.0
1.2468703711636295 0.0021330681475568995 0.0
1.2662776429731184 0.002252410109632645 0.0
1.2856512896084726 0.0023589233169432587 0.0
1.3049954811526454 0.0024520621786258165 0.0
1.3243146024507504 0.002531370741552682 0.0
1.3436132281939472 0.002596486230012079 0.0
1.3628960970509607 0.0026471420599387917 0.0
1.3821680850210984 0.002683170313915868 0.0
1.4014341781888089 0.0027045036668233045 0.0
1.4206994450650894 0.0027111767557592066 0.0
1.4399690087051915 0.0027033269916812877 0.0
1.4592480187952586 0.0026811948140913608 0.0
1.4785416239025495 0.002645123393990859 0.0
1.4978549440849658 0.0025955577942507403 0.0
1.517193044055511 0.002533043600443085 0.0
1.5365609070962827 0.002458225039053812 0.0
1.5559634099144468 0.0023718426038161658 0.0
1.5754052986295957 0.0022747302146532895 0.0
1.594891166077801 0.0021678119373768658 0.0
1.6144254306127666 0.002052098295839427 0.0
1.634012316578613 0.0019286822116642087 0.0
1.65365583662224 0.0017987346099623636 0.0
1.6733597760058143 0.0016634997325794994 0.0
1.6931276790719216 0.0015242902033782144 0.0
1.7129628380052584 0.0013824818928507157 0.0
1.7328682840256142 0.0012395086319549576 0.0
1.752846781137289 0.0010968568274726822 0.0
1.7729008225502247 0.0009560600333913458 0.0
1.7930326298779369 0.0008186935348117033 0.0
1.813244155207088 0.0006863690026758744 0.0
1.833537086123195 0.0005607292791987073 0.0
1.853912853766778 0.00044344335526971736 0.0
1.8743726439841628 0.00033620160228000023 0.0
1.8949174116274647 0.00024071132182448813 0.0
1.9155478980489273 0.00015869267754533076 0.0
1.9362646518260611 9.187507402835293e-05 0.0
1.9570680527459055 4.1994048156768786e-05 0.0
1.9779583390694333 1.078873868094497e-05 0.0

CELLS 100 300
2 0 2
2 2 3
2 3 4
2 4 5
2 5 6
2 6 7
2 7 8
2 8 9
2 9 10
2 10 11
2 11 12
2 12 13
2 13 14
2 14 15
2 15 16
2 16 17
2 17 18
2 18 19
2 19 20
2 20 21
2 21 22
2 22 23
2 23 24
2 24 25
2 25 26
2 26 27
2 27 28
2 28 29
2 29 30
2 30 31
2 31 32
2 32 33
2 33 34
2 34 35
2 35 36
2 36 37
2 37 38
2 38 39
2 39 40
2 40 41
2 41 42
2 42 43
2 43 44
2 44 45
2 45 46
2 46 47
2 47 48
2 48 49
2 49 50
2 50 51
2 51 52
2 52 53
2 53 54
2 54 55
2 55 56
2 56 57
2 57 58
2 58 59
2 59 60
2 60 61
2 61 62
2 62 63
2 63 64
2 64 65
2 65 66
2 66 67
2 67 68
2 68 69
2 69 70
2 70 71
2 71 72
2 72 73
2 73 74
2 74 75
2 75 76
2 76 77
2 77 78
2 78 79
2 79 80
2 80 81
2 81 82
2 82 83
2 83 84
2 84 85
2 85 86
2 86 87
2 87 88
2 88 89
2 89 90
2 90 91
2 91 92
2 92 93
2 93 94
2 94 95
2 95 96
2 96 97
2 97 98
2 98 99
2 99 100
2 100 1

CELL_TYPES 100
3
3
3
3
3
3
3
3
3
3
3
3
3
3
3
3
3
3
3
3
3
3
3
3
3
3
3
3
3
3
3
3
3
3
3
3
3
3
3
3
3
3
3
3
3
3
3
3
3
3
3
3
3
3
3
3
3
3
3
3
3
3
3
3
3
3
3
3
3
3
3
3
3
3
3
3
3
3
3
3
3
3
3
3
3
3
3
3
3
3
3
3
3
3
3
3
3
3
3
3

POINT_DATA 101
SCALARS MODE2_619.3044_Hz float 1
LOOKUP_TABLE default
0.02667832639425423
0.0
0.00027042069938373756
0.026699083007919962
0.051226201980524154
0.07359708701882048
0.09382103666866715
0.11191006164382647
0.12787948854935227
0.14174868299595036
0.15354173192877954
0.16328807272750234
0.17102307352289706
0.17678857506283804
0.1806334097950444
0.1826139209232872
0.18279451462093835
0.18124829451165347
0.1780578524601111
0.17331632962095828
0.1671289269340401
0.1596151531053225
0.15091228306524565
0.14118081837980806
0.13061329096678734
0.11944868054755584
0.10799616053171027
0.09667354918822504
0.08606517552256139
0.07699038186628254
0.07052139906996478
0.0677930767341908
0.069501413157734
0.07546310527553234
0.0847864704938791
0.09641173806822753
0.10945160536274122
0.12325377272168135
0.13735162014845098
0.15140445605845224
0.16515386844506685
0.17839589591397076
0.19096401355270906
0.2027188105813003
0.21354169713990498
0.22333103645466829
0.23199975169910012
0.23947384093246493
0.24569145754367722
0.2506023455246499
0.25416749795121163
0.2563589555978672
0.25715969339290257
0.2565635628299336
0.2545752729356508
0.25121040379507276
0.24649545700115738
0.24046795850898092
0.23317664320751727
0.224681769745335
0.21505564287344375
0.2043834655890343
0.19276471631338998
0.18031536755705324
0.16717146778713352
0.15349495947738576
0.13948320450631146
0.1253846671393985
0.11152460413669278
0.09834571135528687
0.08646546035877668
0.07673032312149616
0.07018092003459671
0.06776358520223974
0.0697975269831806
0.07570959356788932
0.08439972464774075
0.09476895026186898
0.10595814165819112
0.11735092830459416
0.1285076113813822
0.13910468075092816
0.14889365925404818
0.15767548617693478
0.16528493749394357
0.17158112105142395
0.17644159358226474
0.17975864487127408
0.18143689083568149
0.18139166359648984
0.17954788762881996
0.17583924915808627
0.17020753655747473
0.16260207255394285
0.15297918586723497
0.1413016869830855
0.12753832390979083
0.11166320132919325
0.09365515225078395
0.07349705764895377
0.05117512820322159

