# vtk DataFile Version 2.0
mesh vtk view
ASCII
DATASET UNSTRUCTURED_GRID
POINTS 101 double
-0.0007286789968148378 0.0 0.0
2.0 0.0 0.0
0.0199999999999621 7.3445719421719375e-06 0.0
0.04072867899667692 2.8916036463996823e-05 0.0
0.06142268960378645 6.402106217119421e-05 0.0
0.08208203635896497 0.00011196647370329277 0.0
0.10270673089245357 0.00017205942687854351 0.0
0.12329679522750853 0.00024360764811332314 0.0
0.14385226490741398 0.0003259197346482196 0.0
0.16437319194915248 0.0004183055121157397 0.0
0.1848596476239327 0.0005200764459891082 0.0
0.20531172506482967 0.0006305461034577278 0.0
0.22572954170187906 0.0007490306622830451 0.0
0.2461132415251106 0.0008748494631992633 0.0
0.2664629971760987 0.001007325602436355 0.0
0.2867790118687907 0.0011457865609589865 0.0
0.3070615211404259 0.0012895648670331842 0.0
0.327310794433569 0.0014379987887549182 0.0
0.34752713651047845 0.0015904330532003632 0.0
0.36771088870113816 0.0017462195888858837 0.0
0.38786242998647275 0.0019047182882582555 0.0
0.4079821779184556 0.0020652977869717666 0.0
0.4280705893790238 0.002227336256748781 0.0
0.4481281611798718 0.0023902222086639533 0.0
0.4681554305054221 0.0025533553037401665 0.0
0.48815297520145745 0.00271614716779595 0.0
0.5081214139121024 0.002878022207539995 0.0
0.5280614060680502 0.0030384184249682613 0.0
0.5479736517291278 0.003196788227183116 0.0
0.5678588912845028 0.0033525992288220697 0.0
0.5877179050140343 0.003505335044355664 0.0
0.607551512514474 0.0036544960675902916 0.0
0.6273605719944246 0.003799600235791735 0.0
0.6471459794421537 0.003940183775929219 0.0
0.666908667670563 0.004075801930627592 0.0
0.6866496052437934 0.004206029661506717 0.0
0.7063697952901361 0.004330462327682396 0.0
0.7260702742060964 0.004448716337301804 0.0
0.7457521102566307 0.0045604297700884465 0.0
0.7654164020767434 0.004665262968977141 0.0
0.7850642770797902 0.004762899099027739 0.0
0.8046968897779829 0.004853044671917946 0.0
0.8243154200207439 0.004935430034429687 0.0
0.8439210711566809 0.005009809819460337 0.0
0.8635150681250923 0.005075963358209413 0.0
0.8830986554830198 0.0051336950523128136 0.0
0.9026730953739832 0.005182834704820382 0.0
0.9222396654446213 0.005223237809037926 0.0
0.9417996567155587 0.005254785794382027 0.0
0.9613543714128866 0.005277386228524467 0.0
0.9809051207667265 0.005290972975232931 0.0
1.0004532227834082 0.005295506307445467 0.0
1.0199999999977831 0.005290972975247615 0.0
1.0395467772121767 0.0052773862285536415 0.0
1.0590948792289385 0.005254785794425408 0.0
1.078645628582875 0.005223237809095138 0.0
1.0982003432802954 0.005182834704890952 0.0
1.1177603345513205 0.00513369505239619 0.0
1.1373269046220431 0.00507596335830496 0.0
1.156901344513087 0.005009809819567346 0.0
1.1764849318710897 0.0049354300345473895 0.0
1.1960789288395743 0.0048530446720454964 0.0
1.2156845799755815 0.004762899099164254 0.0
1.2353031102184093 0.004665262969121693 0.0
1.2549357229166682 0.0045604297702400605 0.0
1.2745835979197793 0.004448716337459487 0.0
1.294247889739955 0.0043304623278451375 0.0
1.31392972579055 0.004206029661673487 0.0
1.3336302047065716 0.00407580193079734 0.0
1.353350394752975 0.003940183776100913 0.0
1.373091332326267 0.0037996002359643576 0.0
1.3928540205547375 0.0036544960677628506 0.0
1.4126394280025298 0.0035053350445271784 0.0
1.432448487482545 0.0033525992289916086 0.0
1.452282094983052 0.003196788227349794 0.0
1.4721411087126515 0.0030384184251312607 0.0
1.4920263482680987 0.002878022207698536 0.0
1.5119385939292507 0.002716147167949312 0.0
1.531878586085276 0.002553355303887697 0.0
1.5518470247960003 0.0023902222088050718 0.0
1.5718445694921193 0.0022273362568829575 0.0
1.5918718388177566 0.002065297787098561 0.0
1.6119294106186954 0.0019047182883772942 0.0
1.6320178220793569 0.001746219588996877 0.0
1.6521375700114374 0.001590433053303073 0.0
1.6722891112968725 0.001437998788849204 0.0
1.692472863487638 0.0012895648671189808 0.0
1.7126892055646552 0.0011457865610363023 0.0
1.7329384788579099 0.0010073256025052671 0.0
1.7532209881296605 0.0008748494632600009 0.0
1.7735370028224695 0.0007490306623358927 0.0
1.7938867584735643 0.0006305461035029605 0.0
1.814270458296894 0.0005200764460270467 0.0
1.8346882749340436 0.0004183055121467881 0.0
1.8551403523750443 0.0003259197346728559 0.0
1.8756268080499312 0.00024360764813209139 0.0
1.896147735091781 0.00017205942689206113 0.0
1.9167032047718073 0.00011196647371228703 0.0
1.9372932691069942 6.402106217648593e-05 0.0
1.957917963640619 2.891603646648906e-05 0.0
1.9785773103959363 7.344571942836417e-06 0.0

CELLS 100 300
2 0 2
2 2 3
2 3 4
2 4 5
2 5 6
2 6 7
2 7 8
2 8 9
2 9 10
2 10 11
2 11 12
2 12 13
2 13 14
2 14 15
2 15 16
2 16 17
2 17 18
2 18 19
2 19 20
2 20 21
2 21 22
2 22 23
2 23 24
2 24 25
2 25 26
2 26 27
2 27 28
2 28 29
2 29 30
2 30 31
2 31 32
2 32 33
2 33 34
2 34 35
2 35 36
2 36 37
2 37 38
2 38 39
2 39 40
2 40 41
2 41 42
2 42 43
2 43 44
2 44 45
2 45 46
2 46 47
2 47 48
2 48 49
2 49 50
2 50 51
2 51 52
2 52 53
2 53 54
2 54 55
2 55 56
2 56 57
2 57 58
2 58 59
2 59 60
2 60 61
2 61 62
2 62 63
2 63 64
2 64 65
2 65 66
2 66 67
2 67 68
2 68 69
2 69 70
2 70 71
2 71 72
2 72 73
2 73 74
2 74 75
2 75 76
2 76 77
2 77 78
2 78 79
2 79 80
2 80 81
2 81 82
2 82 83
2 83 84
2 84 85
2 85 86
2 86 87
2 87 88
2 88 89
2 89 90
2 90 91
2 91 92
2 92 93
2 93 94
2 94 95
2 95 96
2 96 97
2 97 98
2 98 99
2 99 100
2 100 1

CELL_TYPES 100
3
3
3
3
3
3
3
3
3
3
3
3
3
3
3
3
3
3
3
3
3
3
3
3
3
3
3
3
3
3
3
3
3
3
3
3
3
3
3
3
3
3
3
3
3
3
3
3
3
3
3
3
3
3
3
3
3
3
3
3
3
3
3
3
3
3
3
3
3
3
3
3
3
3
3
3
3
3
3
3
3
3
3
3
3
3
3
3
3
3
3
3
3
3
3
3
3
3
3
3

POINT_DATA 101
SCALARS MODE1_224.6674_Hz float 1
LOOKUP_TABLE default
0.009839986425673726
0.0
9.918014452078463e-05
0.009847731018820213
0.01923125756797109
0.028156174108291288
0.03662511581195344
0.04464086832166672
0.05220633260853886
0.05932455773784835
0.06599878065283044
0.07223246627141555
0.07802934662242618
0.08339345874820135
0.08832918136445082
0.09284127036458886
0.09693489330658514
0.1006156630592228
0.10388967082205085
0.10676351877379067
0.10924435264962298
0.11133989460088535
0.11305847675240305
0.1144090759440515
0.11540135022666352
0.11604567777848339
0.11635319901867203
0.11633586281913487
0.1160064778546191
0.11537877028068476
0.11446744908360029
0.11328828059331075
0.11185817376935578
0.11019527792462196
0.10831909448671911
0.10625060412339407
0.10401240994341089
0.10162889633141185
0.09912640100617437
0.09653339472872755
0.09388065825194737
0.09120143905313122
0.08853156063396189
0.08590944452592082
0.08337599020785583
0.0809742430539394
0.07874876974297221
0.07674466192433503
0.0750061125953192
0.07357456543914814
0.07248652832715803
0.07177125602346147
0.07144861109297575
0.07152745916654862
0.072004905593091
0.07286653094130174
0.07408757674419217
0.0756348444580956
0.07746896438320602
0.07954668951337497
0.08182294861189174
0.0842525068231606
0.08679118850547911
0.08939669236272023
0.09202906909452273
0.09465094384422962
0.0972275603450378
0.09972671012242354
0.1021185946218455
0.10437565403648802
0.10647238523386
0.10838516268797715
0.11009207034340475
0.1115727483279264
0.11280825586717572
0.11378095020178268
0.11447438043331067
0.11487319479053339
0.11496305964658883
0.11473058861955157
0.11416328018151457
0.11324946233889582
0.11197824310113592
0.11033946561003373
0.10832366694849219
0.10592203978109833
0.103126396098001
0.0999291324380022
0.0963231960575097
0.09230205159027571
0.08785964781016664
0.0829903841671253
0.07768907681659548
0.0719509239068135
0.06577146992904184
0.05914656897777699
0.052072346822797856
0.04454516179784075
0.03656156479196276
0.0281182596948488
0.019212071430569067

