# vtk DataFile Version 2.0
mesh vtk view
ASCII
DATASET UNSTRUCTURED_GRID
POINTS 101 double
0.00886968257744839 0.0 0.0
2.0 0.0 0.0
0.0199999999999621 8.99061556733156e-05 0.0
0.04886968257729209 0.00034995040130283766 0.0
0.07701384108746416 0.0007656256168972862 0.0
0.104432893783097 0.001322438979536956 0.0
0.1311279014480438 0.002005927681861916 0.0
0.15710084959039974 0.002801680018990596 0.0
0.1823549031021728 0.0036953612939055612 0.0
0.20689463346262366 0.004672743993315764 0.0
0.23072621860710818 0.0057197416889620545 0.0
0.25385761563657294 0.006822446123431883 0.0
0.27629870660374223 0.007967166944934994 0.0
0.29806141767960687 0.009140473562286817 0.0
0.31915981207680405 0.010329238599647125 0.0
0.33961015718417153 0.011520682440453811 0.0
0.3594309664477035 0.012702418361526606 0.0
0.3786430166169185 0.013862497771549317 0.0
0.39726934106098194 0.014989455083087003 0.0
0.4153351999447881 0.016072351763951397 0.0
0.43286802814082814 0.01710081913209605 0.0
0.44989736183730833 0.018065099478261258 0.0
0.4664547448856247 0.018956085122253552 0.0
0.4825736160099287 0.01976535503196855 0.0
0.49828917807789863 0.020485208658975653 0.0
0.5136382507037295 0.02110869667058203 0.0
0.5286591075213655 0.02162964828567733 0.0
0.5433912995273865 0.022042694950212213 0.0
0.557875465948185 0.022343290117752605 0.0
0.5721531341345681 0.02252772493104041 0.0
0.586266510028245 0.02259313963173033 0.0
0.6002582607783749 0.022537530557307124 0.0
0.6141712911121261 0.022359752616456334 0.0
0.6280485150806827 0.022059517166693545 0.0
0.6419326248111542 0.021637385250685152 0.0
0.6558658578951623 0.021094756180238823 0.0
0.6698897650364566 0.020433851489231 0.0
0.6840449795625917 0.019657694308592787 0.0
0.6983709903796205 0.018770084247720756 0.0
0.7129059199138505 0.017775567897138845 0.0
0.7276863085412412 0.016679405096744288 0.0
0.7427469069530657 0.015487531142354682 0.0
0.7581204778463644 0.01420651513037686 0.0
0.7738376082596731 0.012843514666084467 0.0
0.7899265337989847 0.011406227185075236 0.0
0.8064129759162164 0.009902838159841476 0.0
0.8233199933131039 0.008341966483900195 0.0
0.8406678484479072 0.006732607344474289 0.0
0.8584738900211246 0.0050840729111852265 0.0
0.8767524522101602 0.0034059311825165844 0.0
0.8955147713121749 0.0017079433438527587 0.0
0.9147689203398167 6.158118405523175e-13 0.0
0.9345197619967482 -0.0017079433426294497 0.0
0.9547689203396452 -0.0034059311813103314 0.0
0.9755147713117723 -0.005084072910000738 0.0
0.9967524522095137 -0.006732607343315981 0.0
1.018473890020248 -0.0083419664827723 0.0
1.0406678484468146 -0.009902838158747792 0.0
1.0633199933118096 -0.011406227184019173 0.0
1.086412975914738 -0.012843514665069047 0.0
1.1099265337973405 -0.0142065151294046 0.0
1.133837608257883 -0.01548753114142783 0.0
1.1581204778444474 -0.016679405095864564 0.0
1.1827469069510406 -0.017775567896307506 0.0
1.2076863085391287 -0.01877008424693872 0.0
1.2329059199116712 -0.0196576943078605 0.0
1.2583709903773928 -0.020433851488548482 0.0
1.284044979560335 -0.021094756179605694 0.0
1.309889765034191 -0.02163738525010067 0.0
1.335865857892905 -0.02205951716615661 0.0
1.3619326248089192 -0.02235975261596558 0.0
1.3880485150784836 -0.022537530556860884 0.0
1.414171291109976 -0.022593139631326736 0.0
1.4402582607762848 -0.022527724930677413 0.0
1.4662665100262215 -0.02234329011742802 0.0
1.4921531341326157 -0.02204269494992384 0.0
1.5178754659463087 -0.02162964828542285 0.0
1.5433912995255918 -0.021108696670359056 0.0
1.5686591075196556 -0.02048520865878178 0.0
1.593638250702106 -0.019765355031801393 0.0
1.6182891780763626 -0.01895608512211076 0.0
1.6425736160084792 -0.01806509947814056 0.0
1.6664547448842595 -0.017100819131995237 0.0
1.6898973618360256 -0.016072351763868415 0.0
1.7128680281396282 -0.014989455083019706 0.0
1.7353351999436706 -0.013862497771495837 0.0
1.757269341059938 -0.012702418361485127 0.0
1.778643016615949 -0.011520682440422638 0.0
1.799430966446813 -0.010329238599624653 0.0
1.8196101571833503 -0.009140473562272357 0.0
1.8391598120760477 -0.007967166944927887 0.0
1.8580614176789316 -0.006822446123430866 0.0
1.876298706603169 -0.0057197416889656245 0.0
1.8938576156361024 -0.004672743993322564 0.0
1.9107262186067397 -0.0036953612939143138 0.0
1.9268946334623522 -0.002801680019000004 0.0
1.9423549031019949 -0.002005927681870736 0.0
1.9571008495903037 -0.0013224389795444239 0.0
1.971127901448017 -0.0007656256169029415 0.0
1.984432893783132 -0.0003499504013064068 0.0
1.9970138410875602 -8.990615567454147e-05 0.0

CELLS 100 300
2 0 2
2 2 3
2 3 4
2 4 5
2 5 6
2 6 7
2 7 8
2 8 9
2 9 10
2 10 11
2 11 12
2 12 13
2 13 14
2 14 15
2 15 16
2 16 17
2 17 18
2 18 19
2 19 20
2 20 21
2 21 22
2 22 23
2 23 24
2 24 25
2 25 26
2 26 27
2 27 28
2 28 29
2 29 30
2 30 31
2 31 32
2 32 33
2 33 34
2 34 35
2 35 36
2 36 37
2 37 38
2 38 39
2 39 40
2 40 41
2 41 42
2 42 43
2 43 44
2 44 45
2 45 46
2 46 47
2 47 48
2 48 49
2 49 50
2 50 51
2 51 52
2 52 53
2 53 54
2 54 55
2 55 56
2 56 57
2 57 58
2 58 59
2 59 60
2 60 61
2 61 62
2 62 63
2 63 64
2 64 65
2 65 66
2 66 67
2 67 68
2 68 69
2 69 70
2 70 71
2 71 72
2 72 73
2 73 74
2 74 75
2 75 76
2 76 77
2 77 78
2 78 79
2 79 80
2 80 81
2 81 82
2 82 83
2 83 84
2 84 85
2 85 86
2 86 87
2 87 88
2 88 89
2 89 90
2 90 91
2 91 92
2 92 93
2 93 94
2 94 95
2 95 96
2 96 97
2 97 98
2 98 99
2 99 100
2 100 1

CELL_TYPES 100
3
3
3
3
3
3
3
3
3
3
3
3
3
3
3
3
3
3
3
3
3
3
3
3
3
3
3
3
3
3
3
3
3
3
3
3
3
3
3
3
3
3
3
3
3
3
3
3
3
3
3
3
3
3
3
3
3
3
3
3
3
3
3
3
3
3
3
3
3
3
3
3
3
3
3
3
3
3
3
3
3
3
3
3
3
3
3
3
3
3
3
3
3
3
3
3
3
3
3
3

POINT_DATA 101
SCALARS MODE2_619.3044_Hz float 1
LOOKUP_TABLE default
0.02667832639425423
0.0
0.00027042069938373756
0.026699083007919962
0.051226201980524154
0.07359708701882048
0.09382103666866715
0.11191006164382647
0.12787948854935227
0.14174868299595036
0.15354173192877954
0.16328807272750234
0.17102307352289706
0.17678857506283804
0.1806334097950444
0.1826139209232872
0.18279451462093835
0.18124829451165347
0.1780578524601111
0.17331632962095828
0.1671289269340401
0.1596151531053225
0.15091228306524565
0.14118081837980806
0.13061329096678734
0.11944868054755584
0.10799616053171027
0.09667354918822504
0.08606517552256139
0.07699038186628254
0.07052139906996478
0.0677930767341908
0.069501413157734
0.07546310527553234
0.0847864704938791
0.09641173806822753
0.10945160536274122
0.12325377272168135
0.13735162014845098
0.15140445605845224
0.16515386844506685
0.17839589591397076
0.19096401355270906
0.2027188105813003
0.21354169713990498
0.22333103645466829
0.23199975169910012
0.23947384093246493
0.24569145754367722
0.2506023455246499
0.25416749795121163
0.2563589555978672
0.25715969339290257
0.2565635628299336
0.2545752729356508
0.25121040379507276
0.24649545700115738
0.24046795850898092
0.23317664320751727
0.224681769745335
0.21505564287344375
0.2043834655890343
0.19276471631338998
0.18031536755705324
0.16717146778713352
0.15349495947738576
0.13948320450631146
0.1253846671393985
0.11152460413669278
0.09834571135528687
0.08646546035877668
0.07673032312149616
0.07018092003459671
0.06776358520223974
0.0697975269831806
0.07570959356788932
0.08439972464774075
0.09476895026186898
0.10595814165819112
0.11735092830459416
0.1285076113813822
0.13910468075092816
0.14889365925404818
0.15767548617693478
0.16528493749394357
0.17158112105142395
0.17644159358226474
0.17975864487127408
0.18143689083568149
0.18139166359648984
0.17954788762881996
0.17583924915808627
0.17020753655747473
0.16260207255394285
0.15297918586723497
0.1413016869830855
0.12753832390979083
0.11166320132919325
0.09365515225078395
0.07349705764895377
0.05117512820322159

