# vtk DataFile Version 2.0
mesh vtk view
ASCII
DATASET UNSTRUCTURED_GRID
POINTS 101 double
0.0015134102241538942 0.0 0.0
2.0 0.0 0.0
0.0199999999999621 -1.5254110956818644e-05 0.0
0.038486589775900346 -6.0056383425224184e-05 0.0
0.05704518313024605 -0.00013296682143248032 0.0
0.07567577063859064 -0.00023254575307606965 0.0
0.09437832814582346 -0.0003573541942862059 0.0
0.11315280991134719 -0.0005059543460815175 0.0
0.13199914211451033 -0.0006769102181155333 0.0
0.15091721672003564 -0.0008687883713173057 0.0
0.1699068857030903 -0.0010801587724389174 0.0
0.18896795563344085 -0.001309595753335281 0.0
0.2081001826179361 -0.0015556790678186326 0.0
0.22730326760035516 -0.0018169950389523165 0.0
0.24657685201739654 -0.0020921377896755073 0.0
0.2659205138093243 -0.0023797105496840497 0.0
0.28533376378344066 -0.0026783270315304604 0.0
0.30481604232827153 -0.002986612868952523 0.0
0.32436671647604937 -0.0033032071104930633 0.0
0.343985077310653 -0.003626763761532221 0.0
0.36367033771785573 -0.003955953367920993 0.0
0.3834216304743269 -0.0042894646344798235 0.0
0.4032380066714288 -0.004626006071709008 0.0
0.42311843446948805 -0.004964307664148212 0.0
0.4430617981777806 -0.005303122553921885 0.0
0.4630668976550663 -0.005641228733114667 0.0
0.48313244802508537 -0.005977430738736913 0.0
0.503257079701014 -0.006310561344164852 0.0
0.5234393387124423 -0.006639483241072627 0.0
0.5436776873280227 -0.006963090706015069 0.0
0.5639705049665086 -0.007280311245969459 0.0
0.5843160893884921 -0.007590107217302916 0.0
0.6047126581607227 -0.007891477412798222 0.0
0.6251583503844906 -0.008183458611545303 0.0
0.6456512286791535 -0.008465127086688078 0.0
0.6661892814114955 -0.00873560006620626 0.0
0.686770425161219 -0.008994037142109595 0.0
0.7073925074125065 -0.009239641623626825 0.0
0.7280533094612172 -0.0094716618301837 0.0
0.7487505495269574 -0.009689392320183295 0.0
0.7694818860589114 -0.009892175051826846 0.0
0.7902449212240235 -0.010079400472444967 0.0
0.811037204565802 -0.010250508533046276 0.0
0.8318562368217531 -0.01040498962503301 0.0
0.8526994738871811 -0.01054238543628109 0.0
0.8735643309128442 -0.010662289724034307 0.0
0.8944481865237406 -0.010764349002319257 0.0
0.9153483871460815 -0.010848263141848004 0.0
0.9362622514293396 -0.010913785880639596 0.0
0.9571870747500945 -0.010960725243858513 0.0
0.9781201337842473 -0.01098894387163763 0.0
0.9990586911341037 -0.010998359253925203 0.0
1.0199999999966505 -0.010988943871668128 0.0
1.040941308859227 -0.010960725243919105 0.0
1.0618798662091922 -0.010913785880729696 0.0
1.0828129252434842 -0.010848263141966828 0.0
1.1037377485643898 -0.010764349002465826 0.0
1.1246516128478081 -0.010662289724207474 0.0
1.1455518134703166 -0.010542385436479534 0.0
1.1664356690813888 -0.010404989625255259 0.0
1.1873005261072351 -0.010250508533290735 0.0
1.2081437631728538 -0.01007940047270988 0.0
1.2289627954290012 -0.009892175052110376 0.0
1.2497550787709801 -0.00968939232048352 0.0
1.2705181139362982 -0.00947166183049859 0.0
1.2912494504684617 -0.00923964162395432 0.0
1.3119466905344135 -0.008994037142447595 0.0
1.3326074925833375 -0.00873560006655263 0.0
1.3532295748348409 -0.008465127087040631 0.0
1.3738107185847808 -0.008183458611901897 0.0
1.3943487713173375 -0.007891477413156746 0.0
1.414841649612213 -0.007590107217661307 0.0
1.435287341836192 -0.00728031124632568 0.0
1.455683910608631 -0.006963090706367189 0.0
1.4760294950308184 -0.006639483241418804 0.0
1.496322312669502 -0.006310561344503389 0.0
1.5165606612852756 -0.005977430739066192 0.0
1.5367429202968916 -0.005641228733433188 0.0
1.5568675519730022 -0.005303122554228295 0.0
1.5769331023431963 -0.004964307664441304 0.0
1.5969382018206508 -0.0046260060719876825 0.0
1.6168815655291051 -0.004289464634743167 0.0
1.6367619933273188 -0.003955953368168228 0.0
1.6565783695245666 -0.003626763761762745 0.0
1.676329662281178 -0.003303207110706383 0.0
1.6960149226885137 -0.0029866128691483475 0.0
1.715633283523241 -0.002678327031708653 0.0
1.7351839576711345 -0.0023797105498446283 0.0
1.7546662362160768 -0.0020921377898186324 0.0
1.774079486190296 -0.001816995039078464 0.0
1.7934231479823173 -0.0015556790679283929 0.0
1.8126967323994343 -0.001309595753429226 0.0
1.8318998173819125 -0.001080158772517713 0.0
1.851032044366457 -0.0008687883713817909 0.0
1.8700931142968495 -0.0006769102181667009 0.0
1.889082783279937 -0.0005059543461204977 0.0
1.9080008578854881 -0.0003573541943142809 0.0
1.926847190088674 -0.00023254575309475004 0.0
1.9456216718542187 -0.00013296682144347082 0.0
1.9643242293614653 -6.0056383430400375e-05 0.0
1.982954816869815 -1.5254110958198716e-05 0.0

CELLS 100 300
2 0 2
2 2 3
2 3 4
2 4 5
2 5 6
2 6 7
2 7 8
2 8 9
2 9 10
2 10 11
2 11 12
2 12 13
2 13 14
2 14 15
2 15 16
2 16 17
2 17 18
2 18 19
2 19 20
2 20 21
2 21 22
2 22 23
2 23 24
2 24 25
2 25 26
2 26 27
2 27 28
2 28 29
2 29 30
2 30 31
2 31 32
2 32 33
2 33 34
2 34 35
2 35 36
2 36 37
2 37 38
2 38 39
2 39 40
2 40 41
2 41 42
2 42 43
2 43 44
2 44 45
2 45 46
2 46 47
2 47 48
2 48 49
2 49 50
2 50 51
2 51 52
2 52 53
2 53 54
2 54 55
2 55 56
2 56 57
2 57 58
2 58 59
2 59 60
2 60 61
2 61 62
2 62 63
2 63 64
2 64 65
2 65 66
2 66 67
2 67 68
2 68 69
2 69 70
2 70 71
2 71 72
2 72 73
2 73 74
2 74 75
2 75 76
2 76 77
2 77 78
2 78 79
2 79 80
2 80 81
2 81 82
2 82 83
2 83 84
2 84 85
2 85 86
2 86 87
2 87 88
2 88 89
2 89 90
2 90 91
2 91 92
2 92 93
2 93 94
2 94 95
2 95 96
2 96 97
2 97 98
2 98 99
2 99 100
2 100 1

CELL_TYPES 100
3
3
3
3
3
3
3
3
3
3
3
3
3
3
3
3
3
3
3
3
3
3
3
3
3
3
3
3
3
3
3
3
3
3
3
3
3
3
3
3
3
3
3
3
3
3
3
3
3
3
3
3
3
3
3
3
3
3
3
3
3
3
3
3
3
3
3
3
3
3
3
3
3
3
3
3
3
3
3
3
3
3
3
3
3
3
3
3
3
3
3
3
3
3
3
3
3
3
3
3

POINT_DATA 101
SCALARS MODE1_224.6674_Hz float 1
LOOKUP_TABLE default
0.009839986425673726
0.0
9.918014452078463e-05
0.009847731018820213
0.01923125756797109
0.028156174108291288
0.03662511581195344
0.04464086832166672
0.05220633260853886
0.05932455773784835
0.06599878065283044
0.07223246627141555
0.07802934662242618
0.08339345874820135
0.08832918136445082
0.09284127036458886
0.09693489330658514
0.1006156630592228
0.10388967082205085
0.10676351877379067
0.10924435264962298
0.11133989460088535
0.11305847675240305
0.1144090759440515
0.11540135022666352
0.11604567777848339
0.11635319901867203
0.11633586281913487
0.1160064778546191
0.11537877028068476
0.11446744908360029
0.11328828059331075
0.11185817376935578
0.11019527792462196
0.10831909448671911
0.10625060412339407
0.10401240994341089
0.10162889633141185
0.09912640100617437
0.09653339472872755
0.09388065825194737
0.09120143905313122
0.08853156063396189
0.08590944452592082
0.08337599020785583
0.0809742430539394
0.07874876974297221
0.07674466192433503
0.0750061125953192
0.07357456543914814
0.07248652832715803
0.07177125602346147
0.07144861109297575
0.07152745916654862
0.072004905593091
0.07286653094130174
0.07408757674419217
0.0756348444580956
0.07746896438320602
0.07954668951337497
0.08182294861189174
0.0842525068231606
0.08679118850547911
0.08939669236272023
0.09202906909452273
0.09465094384422962
0.0972275603450378
0.09972671012242354
0.1021185946218455
0.10437565403648802
0.10647238523386
0.10838516268797715
0.11009207034340475
0.1115727483279264
0.11280825586717572
0.11378095020178268
0.11447438043331067
0.11487319479053339
0.11496305964658883
0.11473058861955157
0.11416328018151457
0.11324946233889582
0.11197824310113592
0.11033946561003373
0.10832366694849219
0.10592203978109833
0.103126396098001
0.0999291324380022
0.0963231960575097
0.09230205159027571
0.08785964781016664
0.0829903841671253
0.07768907681659548
0.0719509239068135
0.06577146992904184
0.05914656897777699
0.052072346822797856
0.04454516179784075
0.03656156479196276
0.0281182596948488
0.019212071430569067

