# vtk DataFile Version 2.0
mesh vtk view
ASCII
DATASET UNSTRUCTURED_GRID
POINTS 101 double
-0.0003547873030979345 0.0 0.0
2.0 0.0 0.0
0.0199999999999621 -3.596246226932614e-06 0.0
0.03964521269682983 -1.3998016052113464e-05 0.0
0.059319446356382685 -3.0625024675891354e-05 0.0
0.07902268424851316 -5.289755918147809e-05 0.0
0.09875488394186899 -8.023710727447641e-05 0.0
0.11851596601613035 -0.00011206720075962351 0.0
0.1383058038756222 -0.00014781445175622202 0.0
0.15812421466117213 -0.00018690975973263 0.0
0.17797095125536094 -0.0002287896675584815 0.0
0.19784569537415053 -0.0002728978449372745 0.0
0.21774805173543182 -0.0003186866777973988 0.0
0.23767754329236343 -0.00036561894249147165 0.0
0.25763360751642916 -0.00041316954398588375 0.0
0.27761559371207584 -0.0004608272976181511 0.0
0.2976227613414738 -0.0005080967344610628 0.0
0.31765427933464446 -0.0005544999108619711 0.0
0.33770922635682127 -0.0005995782033234783 0.0
0.35778659200140817 -0.000642894070558054 0.0
0.377885278873506 -0.0006840327652838399 0.0
0.398004105525586 -0.0007226039791304482 0.0
0.41814181020359265 -0.0007582434048901398 0.0
0.43829705535855984 -0.0007906142012787398 0.0
0.4584684328757802 -0.0008194083463590238 0.0
0.47865446997068634 -0.0008443478668232788 0.0
0.49885363569792013 -0.0008651859314270907 0.0
0.5190643480176186 -0.0008817077980084859 0.0
0.5392849813607259 -0.0008937316047101016 0.0
0.55951387463321 -0.0009011089972416138 0.0
0.5797493395974022 -0.0009037255852692106 0.0
0.5999896695673361 -0.0009015012222922823 0.0
0.6202331483539254 -0.0008943901046582508 0.0
0.6404780593951224 -0.0008823806866677393 0.0
0.6607226950058429 -0.0008654954100274036 0.0
0.6809653656824219 -0.0008437902472095504 0.0
0.7012044093967092 -0.0008173540595692375 0.0
0.7214382008156032 -0.0007863077723437091 0.0
0.7416651603828613 -0.0007508033699088282 0.0
0.7618837632014315 -0.0007110227158855517 0.0
0.7820925476562751 -0.0006671762038697696 0.0
0.8022901237197414 -0.0006195012456941855 0.0
0.8224751808839487 -0.0005682606052150727 0.0
0.8426464956673556 -0.0005137405866433772 0.0
0.8628029386457226 -0.00045624908740300816 0.0
0.8829434809609725 -0.00039611352639365785 0.0
0.9030672002650364 -0.0003336786593560068 0.0
0.9231732860595834 -0.00026930429377897076 0.0
0.943261044396594 -0.00020336291644740848 0.0
0.9633299019089719 -0.00013623724730066298 0.0
0.9833794091448307 -6.831773375411014e-05 0.0
1.003409243183687 -2.4632473622092625e-14 0.0
1.0234192095174417 6.831773370517778e-05 0.0
1.043409243183781 0.00013623724725241284 0.0
1.0633794091449509 0.00020336291640002892 0.0
1.0833299019090952 0.00026930429373263847 0.0
1.103261044396721 0.00033367865931089105 0.0
1.1231732860597137 0.0003961135263499105 0.0
1.1430672002651687 0.0004562490873607656 0.0
1.162943480961107 0.0005137405866027603 0.0
1.182802938645857 0.0005682606051761823 0.0
1.2026464956674903 0.0006195012456571114 0.0
1.2224751808840828 0.0006671762038345806 0.0
1.2422901237198731 0.0007110227158522982 0.0
1.2620925476564049 0.0007508033698775465 0.0
1.2818837632015583 0.0007863077723144177 0.0
1.3016651603829843 0.0008173540595419369 0.0
1.3214382008157208 0.0008437902471842253 0.0
1.3412044093968218 0.0008654954100040243 0.0
1.3609653656825282 0.0008823806866462619 0.0
1.3807226950059428 0.0008943901046386206 0.0
1.4004780593952142 0.0009015012222744327 0.0
1.4202331483540098 0.0009037255852530668 0.0
1.4399896695674124 0.0009011089972270938 0.0
1.45974933959747 0.0008937316046971182 0.0
1.4795138746332686 0.000881707797996951 0.0
1.499284981360776 0.0008651859314169115 0.0
1.5190643480176595 0.0008443478668143597 0.0
1.5388536356979523 0.0008194083463512687 0.0
1.5586544699707083 0.0007906142012720534 0.0
1.5784684328757932 0.0007582434048844281 0.0
1.5982970553585636 0.0007226039791256204 0.0
1.6181418102035876 0.0006840327652798075 0.0
1.638004105525571 0.0006428940705547347 0.0
1.6578852788734821 0.0005995782033207864 0.0
1.6777865920013755 0.0005544999108598319 0.0
1.69770922635678 0.0005080967344594037 0.0
1.7176542793345935 0.0004608272976169042 0.0
1.7376227613414141 0.0004131695439849849 0.0
1.7576155937120077 0.00036561894249089317 0.0
1.777633607516355 0.00031868667779711454 0.0
1.7976775432922936 0.0002728978449372338 0.0
1.8177480517353795 0.0002287896675586243 0.0
1.837845695374117 0.00018690975973290202 0.0
1.8579709512553466 0.0001478144517565721 0.0
1.8781242146611763 0.00011206720075999982 0.0
1.8983058038756455 8.02371072748292e-05 0.0
1.9185159660161684 5.2897559181776795e-05 0.0
1.938754883941915 3.062502467611757e-05 0.0
1.9590226842485645 1.3998016052256232e-05 0.0
1.9793194463564423 3.5962462269816482e-06 0.0

CELLS 100 300
2 0 2
2 2 3
2 3 4
2 4 5
2 5 6
2 6 7
2 7 8
2 8 9
2 9 10
2 10 11
2 11 12
2 12 13
2 13 14
2 14 15
2 15 16
2 16 17
2 17 18
2 18 19
2 19 20
2 20 21
2 21 22
2 22 23
2 23 24
2 24 25
2 25 26
2 26 27
2 27 28
2 28 29
2 29 30
2 30 31
2 31 32
2 32 33
2 33 34
2 34 35
2 35 36
2 36 37
2 37 38
2 38 39
2 39 40
2 40 41
2 41 42
2 42 43
2 43 44
2 44 45
2 45 46
2 46 47
2 47 48
2 48 49
2 49 50
2 50 51
2 51 52
2 52 53
2 53 54
2 54 55
2 55 56
2 56 57
2 57 58
2 58 59
2 59 60
2 60 61
2 61 62
2 62 63
2 63 64
2 64 65
2 65 66
2 66 67
2 67 68
2 68 69
2 69 70
2 70 71
2 71 72
2 72 73
2 73 74
2 74 75
2 75 76
2 76 77
2 77 78
2 78 79
2 79 80
2 80 81
2 81 82
2 82 83
2 83 84
2 84 85
2 85 86
2 86 87
2 87 88
2 88 89
2 89 90
2 90 91
2 91 92
2 92 93
2 93 94
2 94 95
2 95 96
2 96 97
2 97 98
2 98 99
2 99 100
2 100 1

CELL_TYPES 100
3
3
3
3
3
3
3
3
3
3
3
3
3
3
3
3
3
3
3
3
3
3
3
3
3
3
3
3
3
3
3
3
3
3
3
3
3
3
3
3
3
3
3
3
3
3
3
3
3
3
3
3
3
3
3
3
3
3
3
3
3
3
3
3
3
3
3
3
3
3
3
3
3
3
3
3
3
3
3
3
3
3
3
3
3
3
3
3
3
3
3
3
3
3
3
3
3
3
3
3

POINT_DATA 101
SCALARS MODE2_619.3044_Hz float 1
LOOKUP_TABLE default
0.02667832639425423
0.0
0.00027042069938373756
0.026699083007919962
0.051226201980524154
0.07359708701882048
0.09382103666866715
0.11191006164382647
0.12787948854935227
0.14174868299595036
0.15354173192877954
0.16328807272750234
0.17102307352289706
0.17678857506283804
0.1806334097950444
0.1826139209232872
0.18279451462093835
0.18124829451165347
0.1780578524601111
0.17331632962095828
0.1671289269340401
0.1596151531053225
0.15091228306524565
0.14118081837980806
0.13061329096678734
0.11944868054755584
0.10799616053171027
0.09667354918822504
0.08606517552256139
0.07699038186628254
0.07052139906996478
0.0677930767341908
0.069501413157734
0.07546310527553234
0.0847864704938791
0.09641173806822753
0.10945160536274122
0.12325377272168135
0.13735162014845098
0.15140445605845224
0.16515386844506685
0.17839589591397076
0.19096401355270906
0.2027188105813003
0.21354169713990498
0.22333103645466829
0.23199975169910012
0.23947384093246493
0.24569145754367722
0.2506023455246499
0.25416749795121163
0.2563589555978672
0.25715969339290257
0.2565635628299336
0.2545752729356508
0.25121040379507276
0.24649545700115738
0.24046795850898092
0.23317664320751727
0.224681769745335
0.21505564287344375
0.2043834655890343
0.19276471631338998
0.18031536755705324
0.16717146778713352
0.15349495947738576
0.13948320450631146
0.1253846671393985
0.11152460413669278
0.09834571135528687
0.08646546035877668
0.07673032312149616
0.07018092003459671
0.06776358520223974
0.0697975269831806
0.07570959356788932
0.08439972464774075
0.09476895026186898
0.10595814165819112
0.11735092830459416
0.1285076113813822
0.13910468075092816
0.14889365925404818
0.15767548617693478
0.16528493749394357
0.17158112105142395
0.17644159358226474
0.17975864487127408
0.18143689083568149
0.18139166359648984
0.17954788762881996
0.17583924915808627
0.17020753655747473
0.16260207255394285
0.15297918586723497
0.1413016869830855
0.12753832390979083
0.11166320132919325
0.09365515225078395
0.07349705764895377
0.05117512820322159

