# vtk DataFile Version 2.0
mesh vtk view
ASCII
DATASET UNSTRUCTURED_GRID
POINTS 101 double
5.605223052421833e-05 0.0 0.0
2.0 0.0 0.0
0.0199999999999621 -5.649670724747648e-07 0.0
0.039943947769405116 -2.2243104972305263e-06 0.0
0.05989056233804731 -4.924697090091866e-06 0.0
0.07983984335683394 -8.612805669484064e-06 0.0
0.09979178993113302 -1.323534052911874e-05 0.0
0.11974640036685207 -1.8739049854871023e-05 0.0
0.1397036719298977 -2.5070748819093835e-05 0.0
0.1596636006189616 -3.217734708582615e-05 0.0
0.17962618095163785 -4.000588046070066e-05 0.0
0.1995914057638436 -4.8503546419825246e-05 0.0
0.21955926602249903 -5.761774325254197e-05 0.0
0.23952975065144622 -6.729611255378952e-05 0.0
0.25950284637055293 -7.74865848027966e-05 0.0
0.27947853754797747 -8.813742776607594e-05 0.0
0.29945680606548103 -9.919729746409117e-05 0.0
0.31943763119671487 -0.00011061529144268608 0.0
0.33942098949842825 -0.00012234100409233572 0.0
0.35940685471446837 -0.00013432458376045267 0.0
0.3793951976924568 -0.0001465167914044813 0.0
0.3993859863130106 -0.00015886906053628983 0.0
0.41937918543136554 -0.0001713335582114448 0.0
0.4393747568312375 -0.00018386324682030425 0.0
0.45937265919074755 -0.0001964119464415514 0.0
0.47937284806022057 -0.00020893439752276552 0.0
0.4993752758516465 -0.0002213863236569228 0.0
0.5193798918395875 -0.00023372449422832795 0.0
0.5393866421732879 -0.0002459067867063937 0.0
0.5593954698997348 -0.0002578922483709286 0.0
0.5794063149974003 -0.00026964115725812817 0.0
0.5994191144203804 -0.00028111508212233033 0.0
0.619433802152629 -0.00029227694121474905 0.0
0.6394503092719716 -0.0003030910596868632 0.0
0.6594685640235697 -0.00031352322543289193 0.0
0.6794884919024891 -0.0003235407431928246 0.0
0.6995100157450151 -0.00033311248674479995 0.0
0.7195330558283399 -0.0003422089490232159 0.0
0.739557529978236 -0.00035080229000680383 0.0
0.7595833536843184 -0.00035886638222901103 0.0
0.7796104402224826 -0.0003663768537713648 0.0
0.7996387007840972 -0.000373311128609073 0.0
0.8196680446115142 -0.00037964846418689927 0.0
0.8396983791394562 -0.00038536998611233387 0.0
0.8597296101418234 -0.0003904587198622628 0.0
0.8797616418834583 -0.0003948996194086782 0.0
0.8997943772763983 -0.0003986795926784911 0.0
0.9198277180401323 -0.00040178752377214845 0.0
0.939861564865382 -0.0004042142918755408 0.0
0.9598958175809094 -0.0004059527868095747 0.0
0.9799303753228589 -0.0004069979211717642 0.0
0.9999651367061516 -0.00040734663903426696 0.0
1.0199999999973866 -0.00040699792117289375 0.0
1.0400348632886443 -0.00040595278681181883 0.0
1.0600696246720274 -0.0004042142918788778 0.0
1.0801041824140882 -0.00040178752377654933 0.0
1.1001384351297283 -0.0003986795926839196 0.0
1.1201722819550912 -0.0003948996194150918 0.0
1.1402056227189388 -0.00039045871986961254 0.0
1.1602383581119926 -0.00038536998612056535 0.0
1.1802703898537406 -0.0003796484641959533 0.0
1.200301620856222 -0.0003733111286188846 0.0
1.2203319553842784 -0.0003663768537818659 0.0
1.2403612992118092 -0.0003588663822401305 0.0
1.2603895597735388 -0.00035080229001846643 0.0
1.280416646311818 -0.00034220894903534536 0.0
1.3004424700180155 -0.0003331124867573185 0.0
1.3204669441680257 -0.00032354074320565303 0.0
1.3404899842514657 -0.0003135232254459494 0.0
1.360511508094107 -0.00030309105970007037 0.0
1.3805314359731418 -0.0002922769412280277 0.0
1.4005496907248538 -0.00028111508213560406 0.0
1.4205661978443116 -0.0002696411572713216 0.0
1.440580885576675 -0.00025789224838397004 0.0
1.46059368499977 -0.00024590678671921506 0.0
1.4806045300975492 -0.00023372449424086635 0.0
1.5006133578241105 -0.0002213863236691183 0.0
1.520620108157925 -0.0002089343975345626 0.0
1.54062472414598 -0.0001964119464528999 0.0
1.5606271519375188 -0.0001838632468311595 0.0
1.5806273408071054 -0.0001713335582217661 0.0
1.6006252431667287 -0.00015886906054604326 0.0
1.6206208145667136 -0.00014651679141363812 0.0
1.6406140136851803 -0.00013432458376899062 0.0
1.6606048023058466 -0.00012234100410023647 0.0
1.6805931452839469 -0.00011061529144993885 0.0
1.700579010500099 -9.91972974706909e-05 0.0
1.720562368801923 -8.81374277720233e-05 0.0
1.7405431939332683 -7.748658480809753e-05 0.0
1.760521462450883 -6.729611255846166e-05 0.0
1.7804971536284162 -5.761774325660717e-05 0.0
1.8004702493476188 -4.850354642330469e-05 0.0
1.8204407339766506 -4.0005880463619006e-05 0.0
1.8404085942353883 -3.217734708821449e-05 0.0
1.8603738190476762 -2.5070748820988936e-05 0.0
1.8803363993804332 -1.8739049856314736e-05 0.0
1.9002963280695786 -1.3235340530158558e-05 0.0
1.9202535996327106 -8.61280567017593e-06 0.0
1.9402082100685227 -4.924697090498921e-06 0.0
1.9601601566429152 -2.224310497422237e-06 0.0
1.9801094376617938 -5.649670725258786e-07 0.0

CELLS 100 300
2 0 2
2 2 3
2 3 4
2 4 5
2 5 6
2 6 7
2 7 8
2 8 9
2 9 10
2 10 11
2 11 12
2 12 13
2 13 14
2 14 15
2 15 16
2 16 17
2 17 18
2 18 19
2 19 20
2 20 21
2 21 22
2 22 23
2 23 24
2 24 25
2 25 26
2 26 27
2 27 28
2 28 29
2 29 30
2 30 31
2 31 32
2 32 33
2 33 34
2 34 35
2 35 36
2 36 37
2 37 38
2 38 39
2 39 40
2 40 41
2 41 42
2 42 43
2 43 44
2 44 45
2 45 46
2 46 47
2 47 48
2 48 49
2 49 50
2 50 51
2 51 52
2 52 53
2 53 54
2 54 55
2 55 56
2 56 57
2 57 58
2 58 59
2 59 60
2 60 61
2 61 62
2 62 63
2 63 64
2 64 65
2 65 66
2 66 67
2 67 68
2 68 69
2 69 70
2 70 71
2 71 72
2 72 73
2 73 74
2 74 75
2 75 76
2 76 77
2 77 78
2 78 79
2 79 80
2 80 81
2 81 82
2 82 83
2 83 84
2 84 85
2 85 86
2 86 87
2 87 88
2 88 89
2 89 90
2 90 91
2 91 92
2 92 93
2 93 94
2 94 95
2 95 96
2 96 97
2 97 98
2 98 99
2 99 100
2 100 1

CELL_TYPES 100
3
3
3
3
3
3
3
3
3
3
3
3
3
3
3
3
3
3
3
3
3
3
3
3
3
3
3
3
3
3
3
3
3
3
3
3
3
3
3
3
3
3
3
3
3
3
3
3
3
3
3
3
3
3
3
3
3
3
3
3
3
3
3
3
3
3
3
3
3
3
3
3
3
3
3
3
3
3
3
3
3
3
3
3
3
3
3
3
3
3
3
3
3
3
3
3
3
3
3
3

POINT_DATA 101
SCALARS MODE1_224.6674_Hz float 1
LOOKUP_TABLE default
0.009839986425673726
0.0
9.918014452078463e-05
0.009847731018820213
0.01923125756797109
0.028156174108291288
0.03662511581195344
0.04464086832166672
0.05220633260853886
0.05932455773784835
0.06599878065283044
0.07223246627141555
0.07802934662242618
0.08339345874820135
0.08832918136445082
0.09284127036458886
0.09693489330658514
0.1006156630592228
0.10388967082205085
0.10676351877379067
0.10924435264962298
0.11133989460088535
0.11305847675240305
0.1144090759440515
0.11540135022666352
0.11604567777848339
0.11635319901867203
0.11633586281913487
0.1160064778546191
0.11537877028068476
0.11446744908360029
0.11328828059331075
0.11185817376935578
0.11019527792462196
0.10831909448671911
0.10625060412339407
0.10401240994341089
0.10162889633141185
0.09912640100617437
0.09653339472872755
0.09388065825194737
0.09120143905313122
0.08853156063396189
0.08590944452592082
0.08337599020785583
0.0809742430539394
0.07874876974297221
0.07674466192433503
0.0750061125953192
0.07357456543914814
0.07248652832715803
0.07177125602346147
0.07144861109297575
0.07152745916654862
0.072004905593091
0.07286653094130174
0.07408757674419217
0.0756348444580956
0.07746896438320602
0.07954668951337497
0.08182294861189174
0.0842525068231606
0.08679118850547911
0.08939669236272023
0.09202906909452273
0.09465094384422962
0.0972275603450378
0.09972671012242354
0.1021185946218455
0.10437565403648802
0.10647238523386
0.10838516268797715
0.11009207034340475
0.1115727483279264
0.11280825586717572
0.11378095020178268
0.11447438043331067
0.11487319479053339
0.11496305964658883
0.11473058861955157
0.11416328018151457
0.11324946233889582
0.11197824310113592
0.11033946561003373
0.10832366694849219
0.10592203978109833
0.103126396098001
0.0999291324380022
0.0963231960575097
0.09230205159027571
0.08785964781016664
0.0829903841671253
0.07768907681659548
0.0719509239068135
0.06577146992904184
0.05914656897777699
0.052072346822797856
0.04454516179784075
0.03656156479196276
0.0281182596948488
0.019212071430569067

