# vtk DataFile Version 2.0
mesh vtk view
ASCII
DATASET UNSTRUCTURED_GRID
POINTS 101 double
-0.008869682577448388 0.0 0.0
2.0 0.0 0.0
0.0199999999999621 -8.990615567331559e-05 0.0
0.03113031742255698 -0.0003499504013028376 0.0
0.042986158912307476 -0.000765625616897286 0.0
0.055567106216589626 -0.0013224389795369559 0.0
0.06887209855155378 -0.0020059276818619157 0.0
0.08289915040911244 -0.0028016800189905955 0.0
0.09764509689726777 -0.0036953612939055604 0.0
0.11310536653675535 -0.004672743993315763 0.0
0.12927378139220963 -0.005719741688962054 0.0
0.14614238436268367 -0.006822446123431881 0.0
0.163701293395453 -0.007967166944934993 0.0
0.1819385823195233 -0.009140473562286816 0.0
0.20084018792223696 -0.010329238599647123 0.0
0.2203898428147567 -0.01152068244045381 0.0
0.2405690335511079 -0.012702418361526604 0.0
0.2613569833817761 -0.013862497771549315 0.0
0.282730658937596 -0.014989455083087 0.0
0.3046648000536729 -0.016072351763951394 0.0
0.3271319718575163 -0.017100819132096046 0.0
0.35010263816091924 -0.018065099478261255 0.0
0.3735452551124861 -0.01895608512225355 0.0
0.39742638398806546 -0.019765355031968548 0.0
0.42171082191997855 -0.02048520865897565 0.0
0.44636174929403116 -0.021108696670582027 0.0
0.4713408924762783 -0.021629648285677327 0.0
0.49660870047014044 -0.02204269495021221 0.0
0.5221245340492251 -0.0223432901177526 0.0
0.5478468658627255 -0.022527724931040407 0.0
0.5737334899689318 -0.022593139631730326 0.0
0.599741739218685 -0.02253753055730712 0.0
0.625828708884817 -0.02235975261645633 0.0
0.6519514849161436 -0.02205951716669354 0.0
0.6780673751855556 -0.02163738525068515 0.0
0.7041341421014308 -0.02109475618023882 0.0
0.7301102349600195 -0.020433851489230995 0.0
0.7559550204337676 -0.019657694308592783 0.0
0.7816290096166221 -0.018770084247720753 0.0
0.8070940800822755 -0.01777556789713884 0.0
0.8323136914547681 -0.016679405096744284 0.0
0.8572530930428266 -0.01548753114235468 0.0
0.8818795221494111 -0.014206515130376858 0.0
0.9061623917359857 -0.012843514666084464 0.0
0.9300734661965575 -0.011406227185075234 0.0
0.953587024079209 -0.009902838159841474 0.0
0.9766800066822048 -0.008341966483900193 0.0
0.9993321515472845 -0.006732607344474288 0.0
1.0215261099739503 -0.005084072911185226 0.0
1.0432475477847982 -0.003405931182516584 0.0
1.0644852286826667 -0.0017079433438527583 0.0
1.0852310796549518 -6.158118405523174e-13 0.0
1.1054802379980817 0.0017079433426294493 0.0
1.125231079655291 0.0034059311813103305 0.0
1.1444852286832696 0.005084072910000737 0.0
1.163247547785632 0.0067326073433159805 0.0
1.1815261099750038 0.008341966482772299 0.0
1.1993321515485436 0.00990283815874779 0.0
1.2166800066836543 0.011406227184019171 0.0
1.233587024080832 0.012843514665069045 0.0
1.2500734661983335 0.014206515129404598 0.0
1.2661623917378972 0.015487531141427828 0.0
1.2818795221514385 0.01667940509586456 0.0
1.2972530930449493 0.017775567896307503 0.0
1.3123136914569673 0.018770084246938715 0.0
1.327094080084531 0.019657694307860497 0.0
1.3416290096189152 0.02043385148854848 0.0
1.3559550204360769 0.02109475617960569 0.0
1.370110234962327 0.021637385250100668 0.0
1.3841341421037188 0.022059517166156607 0.0
1.3980673751878108 0.022359752615965577 0.0
1.4119514849183503 0.02253753055686088 0.0
1.4258287088869641 0.022593139631326732 0.0
1.439741739220761 0.02252772493067741 0.0
1.4537334899709304 0.022343290117428017 0.0
1.4678468658646402 0.022042694949923836 0.0
1.4821245340510534 0.021629648285422846 0.0
1.496608700471876 0.021108696670359053 0.0
1.5113408924779184 0.020485208658781777 0.0
1.526361749295572 0.01976535503180139 0.0
1.5417108219214215 0.018956085122110757 0.0
1.5574263839894107 0.01806509947814056 0.0
1.5735452551137366 0.017100819131995237 0.0
1.5901026381620744 0.01607235176386841 0.0
1.607131971858578 0.014989455083019703 0.0
1.6246648000546413 0.013862497771495836 0.0
1.64273065893848 0.012702418361485125 0.0
1.661356983382573 0.011520682440422637 0.0
1.6805690335518153 0.010329238599624651 0.0
1.7003898428153836 0.009140473562272355 0.0
1.7208401879227924 0.007967166944927885 0.0
1.7419385823200124 0.006822446123430865 0.0
1.763701293395881 0.005719741688965624 0.0
1.7861423843630535 0.004672743993322563 0.0
1.8092737813925224 0.003695361293914313 0.0
1.8331053665370138 0.0028016800190000034 0.0
1.857645096897477 0.0020059276818707355 0.0
1.8828991504092742 0.0013224389795444237 0.0
1.9088720985516672 0.0007656256169029414 0.0
1.9355671062166562 0.00034995040130640675 0.0
1.9629861589123336 8.990615567454146e-05 0.0

CELLS 100 300
2 0 2
2 2 3
2 3 4
2 4 5
2 5 6
2 6 7
2 7 8
2 8 9
2 9 10
2 10 11
2 11 12
2 12 13
2 13 14
2 14 15
2 15 16
2 16 17
2 17 18
2 18 19
2 19 20
2 20 21
2 21 22
2 22 23
2 23 24
2 24 25
2 25 26
2 26 27
2 27 28
2 28 29
2 29 30
2 30 31
2 31 32
2 32 33
2 33 34
2 34 35
2 35 36
2 36 37
2 37 38
2 38 39
2 39 40
2 40 41
2 41 42
2 42 43
2 43 44
2 44 45
2 45 46
2 46 47
2 47 48
2 48 49
2 49 50
2 50 51
2 51 52
2 52 53
2 53 54
2 54 55
2 55 56
2 56 57
2 57 58
2 58 59
2 59 60
2 60 61
2 61 62
2 62 63
2 63 64
2 64 65
2 65 66
2 66 67
2 67 68
2 68 69
2 69 70
2 70 71
2 71 72
2 72 73
2 73 74
2 74 75
2 75 76
2 76 77
2 77 78
2 78 79
2 79 80
2 80 81
2 81 82
2 82 83
2 83 84
2 84 85
2 85 86
2 86 87
2 87 88
2 88 89
2 89 90
2 90 91
2 91 92
2 92 93
2 93 94
2 94 95
2 95 96
2 96 97
2 97 98
2 98 99
2 99 100
2 100 1

CELL_TYPES 100
3
3
3
3
3
3
3
3
3
3
3
3
3
3
3
3
3
3
3
3
3
3
3
3
3
3
3
3
3
3
3
3
3
3
3
3
3
3
3
3
3
3
3
3
3
3
3
3
3
3
3
3
3
3
3
3
3
3
3
3
3
3
3
3
3
3
3
3
3
3
3
3
3
3
3
3
3
3
3
3
3
3
3
3
3
3
3
3
3
3
3
3
3
3
3
3
3
3
3
3

POINT_DATA 101
SCALARS MODE2_619.3044_Hz float 1
LOOKUP_TABLE default
0.02667832639425423
0.0
0.00027042069938373756
0.026699083007919962
0.051226201980524154
0.07359708701882048
0.09382103666866715
0.11191006164382647
0.12787948854935227
0.14174868299595036
0.15354173192877954
0.16328807272750234
0.17102307352289706
0.17678857506283804
0.1806334097950444
0.1826139209232872
0.18279451462093835
0.18124829451165347
0.1780578524601111
0.17331632962095828
0.1671289269340401
0.1596151531053225
0.15091228306524565
0.14118081837980806
0.13061329096678734
0.11944868054755584
0.10799616053171027
0.09667354918822504
0.08606517552256139
0.07699038186628254
0.07052139906996478
0.0677930767341908
0.069501413157734
0.07546310527553234
0.0847864704938791
0.09641173806822753
0.10945160536274122
0.12325377272168135
0.13735162014845098
0.15140445605845224
0.16515386844506685
0.17839589591397076
0.19096401355270906
0.2027188105813003
0.21354169713990498
0.22333103645466829
0.23199975169910012
0.23947384093246493
0.24569145754367722
0.2506023455246499
0.25416749795121163
0.2563589555978672
0.25715969339290257
0.2565635628299336
0.2545752729356508
0.25121040379507276
0.24649545700115738
0.24046795850898092
0.23317664320751727
0.224681769745335
0.21505564287344375
0.2043834655890343
0.19276471631338998
0.18031536755705324
0.16717146778713352
0.15349495947738576
0.13948320450631146
0.1253846671393985
0.11152460413669278
0.09834571135528687
0.08646546035877668
0.07673032312149616
0.07018092003459671
0.06776358520223974
0.0697975269831806
0.07570959356788932
0.08439972464774075
0.09476895026186898
0.10595814165819112
0.11735092830459416
0.1285076113813822
0.13910468075092816
0.14889365925404818
0.15767548617693478
0.16528493749394357
0.17158112105142395
0.17644159358226474
0.17975864487127408
0.18143689083568149
0.18139166359648984
0.17954788762881996
0.17583924915808627
0.17020753655747473
0.16260207255394285
0.15297918586723497
0.1413016869830855
0.12753832390979083
0.11166320132919325
0.09365515225078395
0.07349705764895377
0.05117512820322159

