# vtk DataFile Version 2.0
mesh vtk view
ASCII
DATASET UNSTRUCTURED_GRID
POINTS 101 double
0.0017739365154896788 0.0 0.0
2.0 0.0 0.0
0.0199999999999621 1.7981231134663132e-05 0.0
0.04177393651539805 6.999008026056757e-05 0.0
0.06340276821740148 0.00015312512337945733 0.0
0.08488657875649405 0.0002644877959073914 0.0
0.10622558028944779 0.0004011855363723835 0.0
0.12742016991788482 0.0005603360037981195 0.0
0.1484709806202108 0.0007390722587811127 0.0
0.16937892669227633 0.0009345487986631533 0.0
0.19014524372114877 0.0011439483377924115 0.0
0.21077152312701725 0.0013644892246863773 0.0
0.23125974132042654 0.0015934333889869997 0.0
0.25161228353557347 0.0018280947124573647 0.0
0.2718319624149772 0.002065847719929426 0.0
0.2919220314364056 0.0023041364880907636 0.0
0.31188619328906525 0.0025404836723053226 0.0
0.3317286033228615 0.0027724995543098653 0.0
0.3514538682116276 0.0029978910166174023 0.0
0.371067039988342 0.003214470352790281 0.0
0.39057360562750343 0.0034201638264192116 0.0
0.4099794723667527 0.003613019895652254 0.0
0.42929094897636927 0.0037912170244507122 0.0
0.4485147232011834 0.003953071006393713 0.0
0.4676578356147306 0.004097041731795133 0.0
0.48672765013985014 0.0042217393341164085 0.0
0.5057318215033306 0.0043259296571354685 0.0
0.524678259904488 0.004408538990042446 0.0
0.5435750931886011 0.004468658023550524 0.0
0.5624306268258311 0.004505544986208085 0.0
0.5812533020045197 0.004518627926346068 0.0
0.600051652154499 0.004507506111461427 0.0
0.6188342582212024 0.004471950523291269 0.0
0.6376097030148671 0.004411903433338712 0.0
0.6563865249609148 0.004327477050137033 0.0
0.6751731715776697 0.004218951236047767 0.0
0.6939779530058817 0.0040867702978462025 0.0
0.7128089959110621 0.003931538861718559 0.0
0.7316741980744211 0.0037540168495441536 0.0
0.7505811839812205 0.0035551135794277713 0.0
0.7695372617066519 0.0033358810193488595 0.0
0.78854938138897 0.0030975062284709387 0.0
0.8076240955675831 0.0028413030260753735 0.0
0.8267675216501981 0.002568702933216895 0.0
0.8459853067580139 0.0022812454370150486 0.0
0.8652825951814135 0.001980567631968296 0.0
0.8846639986607443 0.00166839329678004 0.0
0.9041335696876581 0.0013465214688948588 0.0
0.9236947780022549 0.001016814582237046 0.0
0.9433504904400154 0.0006811862365033172 0.0
0.9631029542603716 0.00034158866877055194 0.0
0.9829537840658706 1.2316236811046355e-13 0.0
1.0029039523972816 -0.0003415886685258901 0.0
1.0229537840659035 -0.0006811862362620666 0.0
1.0431029542603711 -0.0010168145820001482 0.0
1.063350490439961 -0.001346521468663197 0.0
1.0836947780021504 -0.0016683932965544611 0.0
1.104133569687506 -0.0019805676317495593 0.0
1.1246639986605476 -0.002281245436803836 0.0
1.1452825951811756 -0.002568702933013811 0.0
1.1659853067577377 -0.0028413030258809214 0.0
1.1867675216498887 -0.003097506228285568 0.0
1.207624095567244 -0.0033358810191729147 0.0
1.2285493813886041 -0.0035551135792615037 0.0
1.2495372617062641 -0.003754016849387746 0.0
1.2705811839808152 -0.003931538861572103 0.0
1.2916741980740016 -0.004086770297709699 0.0
1.3128089959106317 -0.004218951235921141 0.0
1.3339779530054454 -0.004327477050020137 0.0
1.3551731715772306 -0.004411903433231325 0.0
1.3763865249604759 -0.004471950523193119 0.0
1.3976097030144303 -0.004507506111372179 0.0
1.4188342582207711 -0.00451862792626535 0.0
1.4400516521540754 -0.004505544986135485 0.0
1.4612533020041052 -0.004468658023485607 0.0
1.4824306268254255 -0.00440853898998477 0.0
1.5035750931882066 -0.004325929657084573 0.0
1.5246782599041055 -0.004221739334071813 0.0
1.5457318215029607 -0.004097041731756359 0.0
1.5667276501394924 -0.003953071006360281 0.0
1.5876578356143862 -0.003791217024422154 0.0
1.6085147232008519 -0.0036130198956281145 0.0
1.6292909489760503 -0.00342016382639905 0.0
1.6499794723664452 -0.003214470352773685 0.0
1.670573605627208 -0.002997891016603943 0.0
1.691067039988059 -0.0027724995542991694 0.0
1.711453868211355 -0.002540483672297027 0.0
1.7317286033225987 -0.002304136488084529 0.0
1.751886193288814 -0.0020658477199249317 0.0
1.7719220314361637 -0.0018280947124544723 0.0
1.7918319624147456 -0.0015934333889855783 0.0
1.811612283535364 -0.001364489224686174 0.0
1.8312597413202538 -0.0011439483377931256 0.0
1.8507715231268829 -0.0009345487986645133 0.0
1.8701452437210528 -0.0007390722587828632 0.0
1.889378926692217 -0.000560336003800001 0.0
1.9084709806201876 -0.0004011855363741474 0.0
1.927420169917892 -0.0002644877959088849 0.0
1.946225580289477 -0.0001531251233805884 0.0
1.9648865787565417 -6.99900802612814e-05 0.0
1.9834027682174695 -1.7981231134908304e-05 0.0

CELLS 100 300
2 0 2
2 2 3
2 3 4
2 4 5
2 5 6
2 6 7
2 7 8
2 8 9
2 9 10
2 10 11
2 11 12
2 12 13
2 13 14
2 14 15
2 15 16
2 16 17
2 17 18
2 18 19
2 19 20
2 20 21
2 21 22
2 22 23
2 23 24
2 24 25
2 25 26
2 26 27
2 27 28
2 28 29
2 29 30
2 30 31
2 31 32
2 32 33
2 33 34
2 34 35
2 35 36
2 36 37
2 37 38
2 38 39
2 39 40
2 40 41
2 41 42
2 42 43
2 43 44
2 44 45
2 45 46
2 46 47
2 47 48
2 48 49
2 49 50
2 50 51
2 51 52
2 52 53
2 53 54
2 54 55
2 55 56
2 56 57
2 57 58
2 58 59
2 59 60
2 60 61
2 61 62
2 62 63
2 63 64
2 64 65
2 65 66
2 66 67
2 67 68
2 68 69
2 69 70
2 70 71
2 71 72
2 72 73
2 73 74
2 74 75
2 75 76
2 76 77
2 77 78
2 78 79
2 79 80
2 80 81
2 81 82
2 82 83
2 83 84
2 84 85
2 85 86
2 86 87
2 87 88
2 88 89
2 89 90
2 90 91
2 91 92
2 92 93
2 93 94
2 94 95
2 95 96
2 96 97
2 97 98
2 98 99
2 99 100
2 100 1

CELL_TYPES 100
3
3
3
3
3
3
3
3
3
3
3
3
3
3
3
3
3
3
3
3
3
3
3
3
3
3
3
3
3
3
3
3
3
3
3
3
3
3
3
3
3
3
3
3
3
3
3
3
3
3
3
3
3
3
3
3
3
3
3
3
3
3
3
3
3
3
3
3
3
3
3
3
3
3
3
3
3
3
3
3
3
3
3
3
3
3
3
3
3
3
3
3
3
3
3
3
3
3
3
3

POINT_DATA 101
SCALARS MODE2_619.3044_Hz float 1
LOOKUP_TABLE default
0.02667832639425423
0.0
0.00027042069938373756
0.026699083007919962
0.051226201980524154
0.07359708701882048
0.09382103666866715
0.11191006164382647
0.12787948854935227
0.14174868299595036
0.15354173192877954
0.16328807272750234
0.17102307352289706
0.17678857506283804
0.1806334097950444
0.1826139209232872
0.18279451462093835
0.18124829451165347
0.1780578524601111
0.17331632962095828
0.1671289269340401
0.1596151531053225
0.15091228306524565
0.14118081837980806
0.13061329096678734
0.11944868054755584
0.10799616053171027
0.09667354918822504
0.08606517552256139
0.07699038186628254
0.07052139906996478
0.0677930767341908
0.069501413157734
0.07546310527553234
0.0847864704938791
0.09641173806822753
0.10945160536274122
0.12325377272168135
0.13735162014845098
0.15140445605845224
0.16515386844506685
0.17839589591397076
0.19096401355270906
0.2027188105813003
0.21354169713990498
0.22333103645466829
0.23199975169910012
0.23947384093246493
0.24569145754367722
0.2506023455246499
0.25416749795121163
0.2563589555978672
0.25715969339290257
0.2565635628299336
0.2545752729356508
0.25121040379507276
0.24649545700115738
0.24046795850898092
0.23317664320751727
0.224681769745335
0.21505564287344375
0.2043834655890343
0.19276471631338998
0.18031536755705324
0.16717146778713352
0.15349495947738576
0.13948320450631146
0.1253846671393985
0.11152460413669278
0.09834571135528687
0.08646546035877668
0.07673032312149616
0.07018092003459671
0.06776358520223974
0.0697975269831806
0.07570959356788932
0.08439972464774075
0.09476895026186898
0.10595814165819112
0.11735092830459416
0.1285076113813822
0.13910468075092816
0.14889365925404818
0.15767548617693478
0.16528493749394357
0.17158112105142395
0.17644159358226474
0.17975864487127408
0.18143689083568149
0.18139166359648984
0.17954788762881996
0.17583924915808627
0.17020753655747473
0.16260207255394285
0.15297918586723497
0.1413016869830855
0.12753832390979083
0.11166320132919325
0.09365515225078395
0.07349705764895377
0.05117512820322159

