# vtk DataFile Version 2.0
mesh vtk view
ASCII
DATASET UNSTRUCTURED_GRID
POINTS 101 double
0.007450533365056646 0.0 0.0
2.0 0.0 0.0
0.0199999999999621 7.55211707655851e-05 0.0
0.04745053336491328 0.0002939583370943836 0.0
0.07429162651345163 0.0006431255181937203 0.0
0.1005236307777764 0.0011108487428110431 0.0
0.12614743721632457 0.0016849792527640095 0.0
0.15116471365589676 0.0023534112159521 0.0
0.1755781186057804 0.003104103486880671 0.0
0.1993914921085542 0.003925104954385241 0.0
0.2226100236299163 0.004804583018728125 0.0
0.24524039713466178 0.005730854743682781 0.0
0.26729091354707907 0.006692420233745395 0.0
0.2887715908508002 0.0076779977923209265 0.0
0.3096942421444387 0.008676560423703584 0.0
0.3300725320346184 0.0096773732499812 0.0
0.3499220118159758 0.010670031423682348 0.0
0.3692601339581071 0.011644498128101425 0.0
0.3881062464911111 0.01259114226979308 0.0
0.4064815679534989 0.013500775481719171 0.0
0.4244091436381632 0.014364688070960679 0.0
0.4419137839431972 0.015174683561739455 0.0
0.4590219857037736 0.01592311150269298 0.0
0.4757618374481797 0.016602898226853582 0.0
0.49216290958526504 0.017207575273539548 0.0
0.5082561305909536 0.017731305203288906 0.0
0.5240736503177585 0.018168904559968956 0.0
0.5396486916028068 0.018515863758178257 0.0
0.5550153913962683 0.018768363698912185 0.0
0.5702086326728207 0.018923288942073943 0.0
0.5852638684235 0.018978237290653475 0.0
0.6002169390535997 0.01893152566813798 0.0
0.6151038845339414 0.01878219219782332 0.0
0.6299607526675196 0.018529994420022577 0.0
0.6448234048411063 0.018175403610575527 0.0
0.6597273206316638 0.01771959519140061 0.0
0.6747074026303417 0.017164435250954038 0.0
0.6897977828322858 0.01651246321921794 0.0
0.7050316319185805 0.015766870768085434 0.0
0.7204409727273245 0.01493147703359663 0.0
0.7360564991743233 0.014010700281265201 0.0
0.7519074018402465 0.013009526159577933 0.0
0.7680212013906081 0.01193347270951656 0.0
0.7844235909377781 0.01078855231951095 0.0
0.8011382883907906 0.009581230835463198 0.0
0.8181868997692558 0.008318384054266837 0.0
0.835588794382632 0.0070072518464761625 0.0
0.8533609926958574 0.005655390169358402 0.0
0.8715180676173507 0.00427062124539559 0.0
0.8900720598561312 0.0028609821933139306 0.0
0.9090324079018143 0.0014346724088363171 0.0
0.9284058930850275 5.172819460639466e-13 0.0
0.9481966000768549 -0.0014346724078087374 0.0
0.9684058930848969 -0.0028609821923006777 0.0
0.989032407901492 -0.004270621244400619 0.0
1.0100720598556032 -0.005655390168385424 0.0
1.0315180676166285 -0.007007251845528732 0.0
1.053360992694953 -0.008318384053348143 0.0
1.0755887943815572 -0.009581230834576104 0.0
1.0981868997680255 -0.010788552318658 0.0
1.12113828838942 -0.011933472708699863 0.0
1.144423590936284 -0.013009526158799377 0.0
1.1680212013890068 -0.014010700280526232 0.0
1.1919074018385534 -0.014931477032898304 0.0
1.2160564991725558 -0.015766870767428522 0.0
1.2404409727255 -0.016512463218602818 0.0
1.2650316319167145 -0.017164435250380725 0.0
1.2897977828303944 -0.017719595190868784 0.0
1.314707402628442 -0.018175403610084562 0.0
1.3397273206297702 -0.018529994419571552 0.0
1.3648234048392305 -0.018782192197411087 0.0
1.389960752665673 -0.01893152566776314 0.0
1.4151038845321349 -0.01897823729031446 0.0
1.4402169390518431 -0.018923288941769024 0.0
1.4652638684217982 -0.018768363698639535 0.0
1.4902086326711776 -0.018515863757936023 0.0
1.5150153913946882 -0.018168904559755193 0.0
1.5396486916012946 -0.017731305203101604 0.0
1.5640736503163166 -0.017207575273376692 0.0
1.5882561305895835 -0.016602898226713167 0.0
1.6121629095839674 -0.015923111502573035 0.0
1.6357618374469538 -0.015174683561638069 0.0
1.6590219857026176 -0.014364688070875998 0.0
1.6819137839421094 -0.013500775481649466 0.0
1.7044091436371442 -0.012591142269736552 0.0
1.7264815679525483 -0.011644498128056503 0.0
1.7481062464902213 -0.010670031423647506 0.0
1.769260133957279 -0.009677373249955015 0.0
1.7899220118152133 -0.008676560423684709 0.0
1.810072532033913 -0.007677997792308779 0.0
1.8296942421437874 -0.006692420233739424 0.0
1.8487715908502182 -0.0057308547436819264 0.0
1.867290913546586 -0.004804583018731124 0.0
1.8852403971342586 -0.003925104954390953 0.0
1.9026100236296024 -0.003104103486888023 0.0
1.919391492108325 -0.0023534112159600026 0.0
1.9355781186056336 -0.0016849792527714178 0.0
1.9511647136558214 -0.001110848742817316 0.0
1.966147437216309 -0.0006431255181984708 0.0
1.980523630777814 -0.00029395833709738167 0.0
1.9942916265135422 -7.552117076661482e-05 0.0

CELLS 100 300
2 0 2
2 2 3
2 3 4
2 4 5
2 5 6
2 6 7
2 7 8
2 8 9
2 9 10
2 10 11
2 11 12
2 12 13
2 13 14
2 14 15
2 15 16
2 16 17
2 17 18
2 18 19
2 19 20
2 20 21
2 21 22
2 22 23
2 23 24
2 24 25
2 25 26
2 26 27
2 27 28
2 28 29
2 29 30
2 30 31
2 31 32
2 32 33
2 33 34
2 34 35
2 35 36
2 36 37
2 37 38
2 38 39
2 39 40
2 40 41
2 41 42
2 42 43
2 43 44
2 44 45
2 45 46
2 46 47
2 47 48
2 48 49
2 49 50
2 50 51
2 51 52
2 52 53
2 53 54
2 54 55
2 55 56
2 56 57
2 57 58
2 58 59
2 59 60
2 60 61
2 61 62
2 62 63
2 63 64
2 64 65
2 65 66
2 66 67
2 67 68
2 68 69
2 69 70
2 70 71
2 71 72
2 72 73
2 73 74
2 74 75
2 75 76
2 76 77
2 77 78
2 78 79
2 79 80
2 80 81
2 81 82
2 82 83
2 83 84
2 84 85
2 85 86
2 86 87
2 87 88
2 88 89
2 89 90
2 90 91
2 91 92
2 92 93
2 93 94
2 94 95
2 95 96
2 96 97
2 97 98
2 98 99
2 99 100
2 100 1

CELL_TYPES 100
3
3
3
3
3
3
3
3
3
3
3
3
3
3
3
3
3
3
3
3
3
3
3
3
3
3
3
3
3
3
3
3
3
3
3
3
3
3
3
3
3
3
3
3
3
3
3
3
3
3
3
3
3
3
3
3
3
3
3
3
3
3
3
3
3
3
3
3
3
3
3
3
3
3
3
3
3
3
3
3
3
3
3
3
3
3
3
3
3
3
3
3
3
3
3
3
3
3
3
3

POINT_DATA 101
SCALARS MODE2_619.3044_Hz float 1
LOOKUP_TABLE default
0.02667832639425423
0.0
0.00027042069938373756
0.026699083007919962
0.051226201980524154
0.07359708701882048
0.09382103666866715
0.11191006164382647
0.12787948854935227
0.14174868299595036
0.15354173192877954
0.16328807272750234
0.17102307352289706
0.17678857506283804
0.1806334097950444
0.1826139209232872
0.18279451462093835
0.18124829451165347
0.1780578524601111
0.17331632962095828
0.1671289269340401
0.1596151531053225
0.15091228306524565
0.14118081837980806
0.13061329096678734
0.11944868054755584
0.10799616053171027
0.09667354918822504
0.08606517552256139
0.07699038186628254
0.07052139906996478
0.0677930767341908
0.069501413157734
0.07546310527553234
0.0847864704938791
0.09641173806822753
0.10945160536274122
0.12325377272168135
0.13735162014845098
0.15140445605845224
0.16515386844506685
0.17839589591397076
0.19096401355270906
0.2027188105813003
0.21354169713990498
0.22333103645466829
0.23199975169910012
0.23947384093246493
0.24569145754367722
0.2506023455246499
0.25416749795121163
0.2563589555978672
0.25715969339290257
0.2565635628299336
0.2545752729356508
0.25121040379507276
0.24649545700115738
0.24046795850898092
0.23317664320751727
0.224681769745335
0.21505564287344375
0.2043834655890343
0.19276471631338998
0.18031536755705324
0.16717146778713352
0.15349495947738576
0.13948320450631146
0.1253846671393985
0.11152460413669278
0.09834571135528687
0.08646546035877668
0.07673032312149616
0.07018092003459671
0.06776358520223974
0.0697975269831806
0.07570959356788932
0.08439972464774075
0.09476895026186898
0.10595814165819112
0.11735092830459416
0.1285076113813822
0.13910468075092816
0.14889365925404818
0.15767548617693478
0.16528493749394357
0.17158112105142395
0.17644159358226474
0.17975864487127408
0.18143689083568149
0.18139166359648984
0.17954788762881996
0.17583924915808627
0.17020753655747473
0.16260207255394285
0.15297918586723497
0.1413016869830855
0.12753832390979083
0.11166320132919325
0.09365515225078395
0.07349705764895377
0.05117512820322159

