# vtk DataFile Version 2.0
mesh vtk view
ASCII
DATASET UNSTRUCTURED_GRID
POINTS 101 double
0.000168156691572655 0.0 0.0
2.0 0.0 0.0
0.0199999999999621 -1.6949012174242946e-06 0.0
0.03983184330836629 -6.67293149169158e-06 0.0
0.05967168701437029 -1.4774091270275598e-05 0.0
0.07951953007081523 -2.5838417008452196e-05 0.0
0.09937536979380152 -3.970602158735623e-05 0.0
0.119239201101044 -5.6217149564613075e-05 0.0
0.1391110157902525 -7.521224645728151e-05 0.0
0.15899080185750575 -9.653204125747846e-05 0.0
0.17887854285559573 -0.000120017641382102 0.0
0.19877421729227415 -0.00014551063925947574 0.0
0.21867779806830187 -0.00017285322975762592 0.0
0.23858925195520844 -0.0002018883376613686 0.0
0.25850853911261784 -0.00023245975440838983 0.0
0.27843561264500416 -0.00026441228329822787 0.0
0.29837041819763177 -0.0002975918923922735 0.0
0.31831289359145 -0.0003318458743280583 0.0
0.3382629684967068 -0.0003670230122770072 0.0
0.3582205641449441 -0.0004029737512813581 0.0
0.37818559307902594 -0.00043955037421344396 0.0
0.39815795894080414 -0.00047660718160886953 0.0
0.41813755629598576 -0.0005140006746343344 0.0
0.4381242704957183 -0.0005515897404609128 0.0
0.45811797757436545 -0.0005892358393246543 0.0
0.478118544182901 -0.0006268031925682966 0.0
0.4981258275572956 -0.0006641589709707685 0.0
0.5181396755212357 -0.0007011734826849839 0.0
0.5381599265224537 -0.0007377203601191812 0.0
0.5581864097019108 -0.0007736767451127859 0.0
0.578218944995024 -0.0008089234717743847 0.0
0.5982573432640813 -0.0008433452463669911 0.0
0.6183014064609439 -0.0008768308236442472 0.0
0.6383509278190884 -0.0009092731790605898 0.0
0.6584056920739992 -0.0009405696762986758 0.0
0.6784654757108742 -0.0009706222295784739 0.0
0.6985300472385693 -0.0009993374602344 0.0
0.7185991674886604 -0.0010266268470696478 0.0
0.7386725899384653 -0.0010524068700204117 0.0
0.7587500610568291 -0.0010765991466870333 0.0
0.7788313206714387 -0.0010991305613140946 0.0
0.7989161023563992 -0.0011199333858272192 0.0
0.8190041338387671 -0.0011389453925606979 0.0
0.8390951374227098 -0.0011561099583370018 0.0
0.8591888304299278 -0.0011713761595867885 0.0
0.8792849256549495 -0.0011846988582260348 0.0
0.8993831318338862 -0.0011960387780354735 0.0
0.9194831541252053 -0.0012053625713164455 0.0
0.9395846946010711 -0.0012126428756266225 0.0
0.9596874527477698 -0.0012178583604287242 0.0
0.9797911259737349 -0.0012209937635152927 0.0
0.9998954101236863 -0.0012220399171028009 0.0
1.01999999999733 -0.0012209937635186813 0.0
1.0401045898709969 -0.0012178583604354567 0.0
1.06020887402104 -0.0012126428756366334 0.0
1.0803125472471187 -0.001205362571329648 0.0
1.1004153053939332 -0.001196038778051759 0.0
1.1205168458699157 -0.0011846988582452755 0.0
1.1406168681613524 -0.0011713761596088377 0.0
1.1607150743404078 -0.001156109958361696 0.0
1.1808111695655479 -0.00113894539258786 0.0
1.200904862572886 -0.001119933385856654 0.0
1.2209958661569493 -0.0010991305613455979 0.0
1.2410838976394378 -0.0010765991467203916 0.0
1.2611686793245203 -0.0010524068700553993 0.0
1.2812499389392522 -0.0010266268471060362 0.0
1.3013274100577383 -0.0009993374602719556 0.0
1.321400832507665 -0.0009706222296169592 0.0
1.3414699527578793 -0.0009405696763378484 0.0
1.3615345242856973 -0.0009092731791002113 0.0
1.3815943079226953 -0.0008768308236840832 0.0
1.4016490721777277 -0.0008433452464068123 0.0
1.4216985935359947 -0.0008089234718139649 0.0
1.4417426567329794 -0.0007736767451519103 0.0
1.4617810550021584 -0.0007377203601576453 0.0
1.4818135902953917 -0.0007011734827225991 0.0
1.5018400734749693 -0.0006641589710073549 0.0
1.521860324476307 -0.0006268031926036879 0.0
1.5418741724403664 -0.0005892358393586998 0.0
1.5618814558148786 -0.0005515897404934785 0.0
1.581882022423532 -0.0005140006746652983 0.0
1.601875729502296 -0.0004766071816381298 0.0
1.6218624437021447 -0.0004395503742409144 0.0
1.6418420410574408 -0.0004029737513069719 0.0
1.6618144069193337 -0.0003670230123007094 0.0
1.681779435853529 -0.00033184587434981655 0.0
1.7017370315018792 -0.00029759189241207267 0.0
1.721687106407247 -0.00026441228331606993 0.0
1.7416295818011767 -0.00023245975442429261 0.0
1.7615643873539146 -0.000201888337675385 0.0
1.7814914608864085 -0.00017285322976982152 0.0
1.8014107480439123 -0.00014551063926991406 0.0
1.8213222019309014 -0.00012001764139085704 0.0
1.841225782707009 -9.653204126464348e-05 0.0
1.8611214571437664 -7.521224646296681e-05 0.0
1.8810091981419335 -5.621714956894421e-05 0.0
1.900888984209264 -3.970602159047568e-05 0.0
1.920760798898554 -2.5838417010527796e-05 0.0
1.9406246302058838 -1.4774091271496764e-05 0.0
1.9604804699289575 -6.672931492266712e-06 0.0
1.9803283129854878 -1.694901217577636e-06 0.0

CELLS 100 300
2 0 2
2 2 3
2 3 4
2 4 5
2 5 6
2 6 7
2 7 8
2 8 9
2 9 10
2 10 11
2 11 12
2 12 13
2 13 14
2 14 15
2 15 16
2 16 17
2 17 18
2 18 19
2 19 20
2 20 21
2 21 22
2 22 23
2 23 24
2 24 25
2 25 26
2 26 27
2 27 28
2 28 29
2 29 30
2 30 31
2 31 32
2 32 33
2 33 34
2 34 35
2 35 36
2 36 37
2 37 38
2 38 39
2 39 40
2 40 41
2 41 42
2 42 43
2 43 44
2 44 45
2 45 46
2 46 47
2 47 48
2 48 49
2 49 50
2 50 51
2 51 52
2 52 53
2 53 54
2 54 55
2 55 56
2 56 57
2 57 58
2 58 59
2 59 60
2 60 61
2 61 62
2 62 63
2 63 64
2 64 65
2 65 66
2 66 67
2 67 68
2 68 69
2 69 70
2 70 71
2 71 72
2 72 73
2 73 74
2 74 75
2 75 76
2 76 77
2 77 78
2 78 79
2 79 80
2 80 81
2 81 82
2 82 83
2 83 84
2 84 85
2 85 86
2 86 87
2 87 88
2 88 89
2 89 90
2 90 91
2 91 92
2 92 93
2 93 94
2 94 95
2 95 96
2 96 97
2 97 98
2 98 99
2 99 100
2 100 1

CELL_TYPES 100
3
3
3
3
3
3
3
3
3
3
3
3
3
3
3
3
3
3
3
3
3
3
3
3
3
3
3
3
3
3
3
3
3
3
3
3
3
3
3
3
3
3
3
3
3
3
3
3
3
3
3
3
3
3
3
3
3
3
3
3
3
3
3
3
3
3
3
3
3
3
3
3
3
3
3
3
3
3
3
3
3
3
3
3
3
3
3
3
3
3
3
3
3
3
3
3
3
3
3
3

POINT_DATA 101
SCALARS MODE1_224.6674_Hz float 1
LOOKUP_TABLE default
0.009839986425673726
0.0
9.918014452078463e-05
0.009847731018820213
0.01923125756797109
0.028156174108291288
0.03662511581195344
0.04464086832166672
0.05220633260853886
0.05932455773784835
0.06599878065283044
0.07223246627141555
0.07802934662242618
0.08339345874820135
0.08832918136445082
0.09284127036458886
0.09693489330658514
0.1006156630592228
0.10388967082205085
0.10676351877379067
0.10924435264962298
0.11133989460088535
0.11305847675240305
0.1144090759440515
0.11540135022666352
0.11604567777848339
0.11635319901867203
0.11633586281913487
0.1160064778546191
0.11537877028068476
0.11446744908360029
0.11328828059331075
0.11185817376935578
0.11019527792462196
0.10831909448671911
0.10625060412339407
0.10401240994341089
0.10162889633141185
0.09912640100617437
0.09653339472872755
0.09388065825194737
0.09120143905313122
0.08853156063396189
0.08590944452592082
0.08337599020785583
0.0809742430539394
0.07874876974297221
0.07674466192433503
0.0750061125953192
0.07357456543914814
0.07248652832715803
0.07177125602346147
0.07144861109297575
0.07152745916654862
0.072004905593091
0.07286653094130174
0.07408757674419217
0.0756348444580956
0.07746896438320602
0.07954668951337497
0.08182294861189174
0.0842525068231606
0.08679118850547911
0.08939669236272023
0.09202906909452273
0.09465094384422962
0.0972275603450378
0.09972671012242354
0.1021185946218455
0.10437565403648802
0.10647238523386
0.10838516268797715
0.11009207034340475
0.1115727483279264
0.11280825586717572
0.11378095020178268
0.11447438043331067
0.11487319479053339
0.11496305964658883
0.11473058861955157
0.11416328018151457
0.11324946233889582
0.11197824310113592
0.11033946561003373
0.10832366694849219
0.10592203978109833
0.103126396098001
0.0999291324380022
0.0963231960575097
0.09230205159027571
0.08785964781016664
0.0829903841671253
0.07768907681659548
0.0719509239068135
0.06577146992904184
0.05914656897777699
0.052072346822797856
0.04454516179784075
0.03656156479196276
0.0281182596948488
0.019212071430569067

