# vtk DataFile Version 2.0
mesh vtk view
ASCII
DATASET UNSTRUCTURED_GRID
POINTS 101 double
-0.0015134102241538938 0.0 0.0
2.0 0.0 0.0
0.0199999999999621 1.5254110956818638e-05 0.0
0.04151341022394872 6.005638342522416e-05 0.0
0.06295481686952559 0.00013296682143248026 0.0
0.08432422936109597 0.00023254575307606957 0.0
0.1056216718537741 0.0003573541942862057 0.0
0.126847190088165 0.0005059543460815173 0.0
0.14800085788493025 0.000676910218115533 0.0
0.16908278327934337 0.0008687883713173054 0.0
0.19009311429622752 0.001080158772438917 0.0
0.21103204436581577 0.0013095957533352806 0.0
0.2318998173812591 0.001555679067818632 0.0
0.252696732398775 0.0018169950389523158 0.0
0.27342314798164447 0.0020921377896755064 0.0
0.2940794861896039 0.002379710549684049 0.0
0.3146662362153707 0.0026783270315304595 0.0
0.3351839576704231 0.002986612868952522 0.0
0.3556332835225286 0.003303207110493062 0.0
0.376014922687808 0.0036267637615322195 0.0
0.3963296622804887 0.003955953367920992 0.0
0.41657836952390065 0.004289464634479823 0.0
0.43676199332668203 0.004626006071709006 0.0
0.4568815655285061 0.004964307664148211 0.0
0.4769382018200966 0.005303122553921884 0.0
0.49693310234269433 0.005641228733114664 0.0
0.5168675519725584 0.005977430738736912 0.0
0.5367429202965129 0.0063105613441648495 0.0
0.5565606612849678 0.006639483241072625 0.0
0.5763223126692709 0.006963090706015067 0.0
0.5960294950306683 0.007280311245969456 0.0
0.6156839106085678 0.007590107217302912 0.0
0.6352873418362204 0.007891477412798218 0.0
0.6548416496123357 0.008183458611545302 0.0
0.6743487713175563 0.008465127086688076 0.0
0.6938107185850976 0.008735600066206257 0.0
0.7132295748352571 0.008994037142109591 0.0
0.7326074925838528 0.009239641623626822 0.0
0.7519466905350254 0.009471661830183697 0.0
0.7712494504691686 0.009689392320183291 0.0
0.7905181139370978 0.009892175051826843 0.0
0.8097550787718688 0.010079400472444964 0.0
0.8289627954299735 0.010250508533046272 0.0
0.8481437631739056 0.010404989625033006 0.0
0.8673005261083611 0.010542385436281087 0.0
0.8864356690825812 0.010662289724034303 0.0
0.9055518134715681 0.010764349002319252 0.0
0.9246516128491102 0.010848263141848 0.0
0.9437377485657353 0.010913785880639593 0.0
0.962812925244864 0.010960725243858507 0.0
0.9818798662105943 0.010988943871637626 0.0
1.0009413088606647 0.0109983592539252 0.0
1.0199999999981795 0.010988943871668122 0.0
1.0390586911357091 0.010960725243919101 0.0
1.0581201337858497 0.010913785880729691 0.0
1.0771870747516616 0.010848263141966824 0.0
1.0962622514308622 0.010764349002465822 0.0
1.11534838714755 0.01066228972420747 0.0
1.1344481865251472 0.01054238543647953 0.0
1.1535643309141812 0.010404989625255255 0.0
1.1726994738884389 0.010250508533290731 0.0
1.1918562368229264 0.010079400472709877 0.0
1.2110372045668847 0.009892175052110373 0.0
1.2302449212250097 0.009689392320483516 0.0
1.2494818860597978 0.009471661830498586 0.0
1.2687505495277405 0.009239641623954319 0.0
1.2880533094618944 0.008994037142447594 0.0
1.3073925074130743 0.008735600066552626 0.0
1.3267704251616772 0.008465127087040628 0.0
1.346189281411843 0.008183458611901895 0.0
1.3656512286793925 0.007891477413156742 0.0
1.385158350384621 0.007590107217661304 0.0
1.404712658160748 0.007280311246325677 0.0
1.4243160893884148 0.006963090706367186 0.0
1.4439705049663336 0.006639483241418802 0.0
1.463677687327754 0.006310561344503387 0.0
1.4834393387120868 0.005977430739066189 0.0
1.5032570797005762 0.005641228733433186 0.0
1.5231324480245718 0.005303122554228293 0.0
1.5430668976544817 0.004964307664441303 0.0
1.5630617981771333 0.004626006071987681 0.0
1.5831184344687848 0.004289464634743165 0.0
1.6032380066706775 0.003955953368168226 0.0
1.6234216304735334 0.003626763761762744 0.0
1.643670337717028 0.003303207110706382 0.0
1.6639850773097982 0.0029866128691483466 0.0
1.684366716475177 0.002678327031708652 0.0
1.7048160423273875 0.0023797105498446275 0.0
1.7253337637825514 0.002092137789818632 0.0
1.7459205138084382 0.0018169950390784634 0.0
1.7665768520165228 0.0015556790679283922 0.0
1.7873032675995097 0.0013095957534292255 0.0
1.8081001826171377 0.0010801587725177125 0.0
1.828967955632699 0.0008687883713817906 0.0
1.8499068857024126 0.0006769102181667007 0.0
1.870917216719429 0.0005059543461204975 0.0
1.8919991421139837 0.0003573541943142808 0.0
1.913152809910904 0.00023254575309474996 0.0
1.9343783281454654 0.00013296682144347077 0.0
1.9556757706383228 6.0056383430400354e-05 0.0
1.9770451831300788 1.5254110958198711e-05 0.0

CELLS 100 300
2 0 2
2 2 3
2 3 4
2 4 5
2 5 6
2 6 7
2 7 8
2 8 9
2 9 10
2 10 11
2 11 12
2 12 13
2 13 14
2 14 15
2 15 16
2 16 17
2 17 18
2 18 19
2 19 20
2 20 21
2 21 22
2 22 23
2 23 24
2 24 25
2 25 26
2 26 27
2 27 28
2 28 29
2 29 30
2 30 31
2 31 32
2 32 33
2 33 34
2 34 35
2 35 36
2 36 37
2 37 38
2 38 39
2 39 40
2 40 41
2 41 42
2 42 43
2 43 44
2 44 45
2 45 46
2 46 47
2 47 48
2 48 49
2 49 50
2 50 51
2 51 52
2 52 53
2 53 54
2 54 55
2 55 56
2 56 57
2 57 58
2 58 59
2 59 60
2 60 61
2 61 62
2 62 63
2 63 64
2 64 65
2 65 66
2 66 67
2 67 68
2 68 69
2 69 70
2 70 71
2 71 72
2 72 73
2 73 74
2 74 75
2 75 76
2 76 77
2 77 78
2 78 79
2 79 80
2 80 81
2 81 82
2 82 83
2 83 84
2 84 85
2 85 86
2 86 87
2 87 88
2 88 89
2 89 90
2 90 91
2 91 92
2 92 93
2 93 94
2 94 95
2 95 96
2 96 97
2 97 98
2 98 99
2 99 100
2 100 1

CELL_TYPES 100
3
3
3
3
3
3
3
3
3
3
3
3
3
3
3
3
3
3
3
3
3
3
3
3
3
3
3
3
3
3
3
3
3
3
3
3
3
3
3
3
3
3
3
3
3
3
3
3
3
3
3
3
3
3
3
3
3
3
3
3
3
3
3
3
3
3
3
3
3
3
3
3
3
3
3
3
3
3
3
3
3
3
3
3
3
3
3
3
3
3
3
3
3
3
3
3
3
3
3
3

POINT_DATA 101
SCALARS MODE1_224.6674_Hz float 1
LOOKUP_TABLE default
0.009839986425673726
0.0
9.918014452078463e-05
0.009847731018820213
0.01923125756797109
0.028156174108291288
0.03662511581195344
0.04464086832166672
0.05220633260853886
0.05932455773784835
0.06599878065283044
0.07223246627141555
0.07802934662242618
0.08339345874820135
0.08832918136445082
0.09284127036458886
0.09693489330658514
0.1006156630592228
0.10388967082205085
0.10676351877379067
0.10924435264962298
0.11133989460088535
0.11305847675240305
0.1144090759440515
0.11540135022666352
0.11604567777848339
0.11635319901867203
0.11633586281913487
0.1160064778546191
0.11537877028068476
0.11446744908360029
0.11328828059331075
0.11185817376935578
0.11019527792462196
0.10831909448671911
0.10625060412339407
0.10401240994341089
0.10162889633141185
0.09912640100617437
0.09653339472872755
0.09388065825194737
0.09120143905313122
0.08853156063396189
0.08590944452592082
0.08337599020785583
0.0809742430539394
0.07874876974297221
0.07674466192433503
0.0750061125953192
0.07357456543914814
0.07248652832715803
0.07177125602346147
0.07144861109297575
0.07152745916654862
0.072004905593091
0.07286653094130174
0.07408757674419217
0.0756348444580956
0.07746896438320602
0.07954668951337497
0.08182294861189174
0.0842525068231606
0.08679118850547911
0.08939669236272023
0.09202906909452273
0.09465094384422962
0.0972275603450378
0.09972671012242354
0.1021185946218455
0.10437565403648802
0.10647238523386
0.10838516268797715
0.11009207034340475
0.1115727483279264
0.11280825586717572
0.11378095020178268
0.11447438043331067
0.11487319479053339
0.11496305964658883
0.11473058861955157
0.11416328018151457
0.11324946233889582
0.11197824310113592
0.11033946561003373
0.10832366694849219
0.10592203978109833
0.103126396098001
0.0999291324380022
0.0963231960575097
0.09230205159027571
0.08785964781016664
0.0829903841671253
0.07768907681659548
0.0719509239068135
0.06577146992904184
0.05914656897777699
0.052072346822797856
0.04454516179784075
0.03656156479196276
0.0281182596948488
0.019212071430569067

