# vtk DataFile Version 2.0
mesh vtk view
ASCII
DATASET UNSTRUCTURED_GRID
POINTS 101 double
0.008160107971252517 0.0 0.0
2.0 0.0 0.0
0.0199999999999621 8.271366321945035e-05 0.0
0.048160107971102685 0.0003219543691986106 0.0
0.0756527338004579 0.0007043755675455032 0.0
0.1024782622804367 0.0012166438611739996 0.0
0.12863766933218418 0.0018454534673129628 0.0
0.15413278162314825 0.002577545617471348 0.0
0.1789665108539766 0.003399732390393116 0.0
0.20314306278558894 0.004298924473850502 0.0
0.22666812111851226 0.005262162353845089 0.0
0.24954900638561736 0.0062766504335573315 0.0
0.2717948100754106 0.007329793589340194 0.0
0.29341650426520355 0.008409235677303872 0.0
0.31442702711062137 0.009502899511675354 0.0
0.33484134460939496 0.010599027845217506 0.0
0.3546764891318397 0.011686224892604477 0.0
0.3739515752875128 0.012753497949825372 0.0
0.3926877937760465 0.01379029867644004 0.0
0.4109083839491435 0.014786563622835284 0.0
0.42863858588949566 0.015732753601528364 0.0
0.44590557289025273 0.016619891520000356 0.0
0.4627383652946992 0.017439598312473267 0.0
0.47916772672905417 0.018184126629411067 0.0
0.4952260438315818 0.018846391966257602 0.0
0.5109471906473415 0.019420000936935466 0.0
0.526366378919562 0.019899276422823145 0.0
0.5415199955650967 0.020279279354195236 0.0
0.5564454286722267 0.020555826908332395 0.0
0.5711808834036944 0.020725506936557177 0.0
0.5857651892258725 0.020785688461191904 0.0
0.6002375999159874 0.020734528112722552 0.0
0.6146375878230337 0.02057097240713983 0.0
0.6290046338741012 0.02029475579335806 0.0
0.6433780148261302 0.01990639443063034 0.0
0.657796589263413 0.019407175685819716 0.0
0.6722985838333991 0.018799143370092516 0.0
0.6869213811974387 0.018085078763905364 0.0
0.7017013111491005 0.017268477507903095 0.0
0.7166734463205876 0.016353522465367736 0.0
0.7318714038577822 0.015345052689004744 0.0
0.7473271543966561 0.014248528650966309 0.0
0.7630708396184863 0.013069993919946711 0.0
0.7791305995987255 0.011816033492797709 0.0
0.7955324110948876 0.010493729010269218 0.0
0.8122999378427361 0.009110611107054157 0.0
0.829454393847868 0.007674609165188179 0.0
0.8470144205718824 0.006193998756916346 0.0
0.8649959788192377 0.004677347078290408 0.0
0.8834122560331458 0.0031334566879152575 0.0
0.9022735896069947 0.0015713078763445378 0.0
0.9215874067124221 5.66546893308132e-13 0.0
0.9413581810368017 -0.0015713078752190937 0.0
0.9615874067122712 -0.0031334566868055046 0.0
0.9822735896066322 -0.004677347077200679 0.0
1.0034122560325585 -0.006193998755850703 0.0
1.0249959788184382 -0.007674609164150517 0.0
1.0470144205708838 -0.009110611106047967 0.0
1.0694543938466834 -0.01049372900929764 0.0
1.0922999378413818 -0.011816033491863524 0.0
1.1155324110933802 -0.01306999391905223 0.0
1.1391305995970835 -0.014248528650113603 0.0
1.163070839616727 -0.015345052688195398 0.0
1.187327154394797 -0.016353522464602907 0.0
1.2118714038558422 -0.017268477507183622 0.0
1.2366734463185856 -0.01808507876323166 0.0
1.2617013111470536 -0.018799143369464602 0.0
1.2869213811953646 -0.01940717568523724 0.0
1.3122985838313164 -0.01990639443009262 0.0
1.3377965892613377 -0.02029475579286408 0.0
1.3633780148240748 -0.020570972406688332 0.0
1.3890046338720783 -0.020734528112312012 0.0
1.4146375878210555 -0.020785688460820597 0.0
1.440237599914064 -0.020725506936223218 0.0
1.4657651892240098 -0.02055582690803378 0.0
1.4911808834018967 -0.02027927935392993 0.0
1.5164454286704985 -0.019899276422589023 0.0
1.5415199955634433 -0.01942000093673033 0.0
1.5663663789179862 -0.018846391966079235 0.0
1.5909471906458448 -0.01818412662925728 0.0
1.615226043830165 -0.017439598312341896 0.0
1.6391677267277165 -0.016619891519889317 0.0
1.6627383652934387 -0.01573275360143562 0.0
1.6859055728890675 -0.01478656362275894 0.0
1.7086385858883864 -0.013790298676378128 0.0
1.7309083839481094 -0.01275349794977617 0.0
1.7526877937750798 -0.011686224892566316 0.0
1.773951575286614 -0.010599027845188826 0.0
1.7946764891310132 -0.00950289951165468 0.0
1.8148413446086318 -0.008409235677290568 0.0
1.8344270271099175 -0.007329793589333655 0.0
1.853416504264575 -0.006276650433556396 0.0
1.8717948100748776 -0.005262162353848374 0.0
1.8895490063851805 -0.0042989244738567585 0.0
1.906668121118171 -0.0033997323904011684 0.0
1.9231430627853388 -0.0025775456174800034 0.0
1.9389665108538143 -0.0018454534673210767 0.0
1.9541327816230625 -0.0012166438611808698 0.0
1.968637669332163 -0.0007043755675507062 0.0
1.9824782622804729 -0.00032195436920189426 0.0
1.9956527338005512 -8.271366322057815e-05 0.0

CELLS 100 300
2 0 2
2 2 3
2 3 4
2 4 5
2 5 6
2 6 7
2 7 8
2 8 9
2 9 10
2 10 11
2 11 12
2 12 13
2 13 14
2 14 15
2 15 16
2 16 17
2 17 18
2 18 19
2 19 20
2 20 21
2 21 22
2 22 23
2 23 24
2 24 25
2 25 26
2 26 27
2 27 28
2 28 29
2 29 30
2 30 31
2 31 32
2 32 33
2 33 34
2 34 35
2 35 36
2 36 37
2 37 38
2 38 39
2 39 40
2 40 41
2 41 42
2 42 43
2 43 44
2 44 45
2 45 46
2 46 47
2 47 48
2 48 49
2 49 50
2 50 51
2 51 52
2 52 53
2 53 54
2 54 55
2 55 56
2 56 57
2 57 58
2 58 59
2 59 60
2 60 61
2 61 62
2 62 63
2 63 64
2 64 65
2 65 66
2 66 67
2 67 68
2 68 69
2 69 70
2 70 71
2 71 72
2 72 73
2 73 74
2 74 75
2 75 76
2 76 77
2 77 78
2 78 79
2 79 80
2 80 81
2 81 82
2 82 83
2 83 84
2 84 85
2 85 86
2 86 87
2 87 88
2 88 89
2 89 90
2 90 91
2 91 92
2 92 93
2 93 94
2 94 95
2 95 96
2 96 97
2 97 98
2 98 99
2 99 100
2 100 1

CELL_TYPES 100
3
3
3
3
3
3
3
3
3
3
3
3
3
3
3
3
3
3
3
3
3
3
3
3
3
3
3
3
3
3
3
3
3
3
3
3
3
3
3
3
3
3
3
3
3
3
3
3
3
3
3
3
3
3
3
3
3
3
3
3
3
3
3
3
3
3
3
3
3
3
3
3
3
3
3
3
3
3
3
3
3
3
3
3
3
3
3
3
3
3
3
3
3
3
3
3
3
3
3
3

POINT_DATA 101
SCALARS MODE2_619.3044_Hz float 1
LOOKUP_TABLE default
0.02667832639425423
0.0
0.00027042069938373756
0.026699083007919962
0.051226201980524154
0.07359708701882048
0.09382103666866715
0.11191006164382647
0.12787948854935227
0.14174868299595036
0.15354173192877954
0.16328807272750234
0.17102307352289706
0.17678857506283804
0.1806334097950444
0.1826139209232872
0.18279451462093835
0.18124829451165347
0.1780578524601111
0.17331632962095828
0.1671289269340401
0.1596151531053225
0.15091228306524565
0.14118081837980806
0.13061329096678734
0.11944868054755584
0.10799616053171027
0.09667354918822504
0.08606517552256139
0.07699038186628254
0.07052139906996478
0.0677930767341908
0.069501413157734
0.07546310527553234
0.0847864704938791
0.09641173806822753
0.10945160536274122
0.12325377272168135
0.13735162014845098
0.15140445605845224
0.16515386844506685
0.17839589591397076
0.19096401355270906
0.2027188105813003
0.21354169713990498
0.22333103645466829
0.23199975169910012
0.23947384093246493
0.24569145754367722
0.2506023455246499
0.25416749795121163
0.2563589555978672
0.25715969339290257
0.2565635628299336
0.2545752729356508
0.25121040379507276
0.24649545700115738
0.24046795850898092
0.23317664320751727
0.224681769745335
0.21505564287344375
0.2043834655890343
0.19276471631338998
0.18031536755705324
0.16717146778713352
0.15349495947738576
0.13948320450631146
0.1253846671393985
0.11152460413669278
0.09834571135528687
0.08646546035877668
0.07673032312149616
0.07018092003459671
0.06776358520223974
0.0697975269831806
0.07570959356788932
0.08439972464774075
0.09476895026186898
0.10595814165819112
0.11735092830459416
0.1285076113813822
0.13910468075092816
0.14889365925404818
0.15767548617693478
0.16528493749394357
0.17158112105142395
0.17644159358226474
0.17975864487127408
0.18143689083568149
0.18139166359648984
0.17954788762881996
0.17583924915808627
0.17020753655747473
0.16260207255394285
0.15297918586723497
0.1413016869830855
0.12753832390979083
0.11166320132919325
0.09365515225078395
0.07349705764895377
0.05117512820322159

