# vtk DataFile Version 2.0
mesh vtk view
ASCII
DATASET UNSTRUCTURED_GRID
POINTS 101 double
0.0024835111216855504 0.0 0.0
2.0 0.0 0.0
0.0199999999999621 2.5173723588528384e-05 0.0
0.04248351112158745 9.79861123647946e-05 0.0
0.06476387550440776 0.00021437517273124025 0.0
0.08684121025915434 0.00037028291427034795 0.0
0.10871581240530738 0.0005616597509213369 0.0
0.13038823788513632 0.0007844704053173673 0.0
0.151859372868407 0.0010347011622935578 0.0
0.17313049736931108 0.0013083683181284145 0.0
0.19420334120974472 0.0016015276729093762 0.0
0.21508013237797283 0.0019102849145609282 0.0
0.2357636378487581 0.0022308067445817995 0.0
0.2562571969499768 0.0025593325974403104 0.0
0.2765647473811599 0.0028921868079011966 0.0
0.29669084401118223 0.003225791083327069 0.0
0.31664067060492906 0.003556677141227452 0.0
0.33642004465226727 0.0038814993760338114 0.0
0.35603541549656303 0.004197047423264363 0.0
0.37549385598398666 0.004500258493906393 0.0
0.3948030478788359 0.004788229356986896 0.0
0.41397126131380824 0.005058227853913156 0.0
0.43300732856729485 0.005307703834230997 0.0
0.45192061248205795 0.005534299408951198 0.0
0.4707209698610474 0.005735858424513187 0.0
0.48941871019623806 0.005910435067762972 0.0
0.5080245501051341 0.006056301519989656 0.0
0.5265495638667779 0.0061719545860594235 0.0
0.5450051304645595 0.006256121232970733 0.0
0.5634028775567048 0.006307762980691319 0.0
0.5817546228068923 0.006326079096884496 0.0
0.6000723130168866 0.006310508556045999 0.0
0.6183679615102948 0.006260730732607777 0.0
0.6366535842214487 0.006176664806674196 0.0
0.6549411349459388 0.006058467870191846 0.0
0.6732424402094189 0.005906531730466873 0.0
0.6915691342089392 0.005721478416984683 0.0
0.709932594276215 0.005504154406405983 0.0
0.728343877304941 0.0052556235893618155 0.0
0.7468136575744835 0.00497715901119888 0.0
0.7653521663901108 0.004670233427088403 0.0
0.7839691339453796 0.004336508719859314 0.0
0.8026737337954613 0.003977824236505523 0.0
0.8214745303111456 0.003596184106503653 0.0
0.8403794294621109 0.0031937436118210684 0.0
0.8593956332548938 0.0027727946847556145 0.0
0.8785295981259802 0.002335750615492056 0.0
0.897786997563683 0.0018851300564528021 0.0
0.9171726892041419 0.0014235404151318643 0.0
0.9366906866170299 0.0009536607311046442 0.0
0.956344135965552 0.0004782241362787727 0.0
0.9761352976932652 1.7242731535464898e-13 0.0
0.9960655333572282 -0.00047822413593624617 0.0
1.0161352976932776 -0.0009536607307668933 0.0
1.0363441359655112 -0.0014235404148002075 0.0
1.0566906866169163 -0.001885130056128476 0.0
1.0771726892039601 -0.0023357506151762456 0.0
1.097786997563437 -0.0027727946844493833 0.0
1.1185295981256738 -0.0031937436115253705 0.0
1.1393956332545319 -0.0035961841062193355 0.0
1.160379429461698 -0.00397782423623329 0.0
1.1814745303106882 -0.004336508719599795 0.0
1.2026737337949642 -0.004670233426842081 0.0
1.2239691339448477 -0.004977159010966105 0.0
1.2453521663895506 -0.005255623589142845 0.0
1.2668136575739006 -0.005504154406200943 0.0
1.2883438773043407 -0.005721478416793578 0.0
1.3099325942756022 -0.005906531730289598 0.0
1.33156913420832 -0.0060584678700281915 0.0
1.353242440208798 -0.006176664806523855 0.0
1.3749411349453202 -0.006260730732470366 0.0
1.3966535842208356 -0.006310508555921051 0.0
1.4183679615096916 -0.00632607909677149 0.0
1.4400723130162962 -0.006307762980589679 0.0
1.4617546228063167 -0.006256121232879849 0.0
1.4834028775561445 -0.006171954585978678 0.0
1.5050051304640168 -0.006056301519918402 0.0
1.526549563866254 -0.005910435067700539 0.0
1.5480245501046301 -0.005735858424458902 0.0
1.5694187101957537 -0.005534299408904393 0.0
1.5907209698605838 -0.005307703834191015 0.0
1.6119206124816146 -0.00505822785387936 0.0
1.6330073285668711 -0.00478822935695867 0.0
1.6539712613134032 -0.004500258493883158 0.0
1.6748030478784501 -0.00419704742324552 0.0
1.6954938559836201 -0.003881499376018837 0.0
1.7160354154962132 -0.003556677141215838 0.0
1.7364200446519338 -0.0032257910833183405 0.0
1.7566406706046138 -0.0028921868078949048 0.0
1.7766908440108824 -0.0025593325974362616 0.0
1.796564747380876 -0.0022308067445798094 0.0
1.8162571969497208 -0.0019102849145606435 0.0
1.8357636378485453 -0.0016015276729103758 0.0
1.8550801323778048 -0.0013083683181303186 0.0
1.8742033412096215 -0.0010347011622960085 0.0
1.8931304973692304 -0.0007844704053200015 0.0
1.9118593728683684 -0.0005616597509238064 0.0
1.9303882378851331 -0.0003702829142724389 0.0
1.948715812405331 -0.00021437517273282375 0.0
1.9668412102592008 -9.798611236579396e-05 0.0
1.9847638755044787 -2.5173723588871625e-05 0.0

CELLS 100 300
2 0 2
2 2 3
2 3 4
2 4 5
2 5 6
2 6 7
2 7 8
2 8 9
2 9 10
2 10 11
2 11 12
2 12 13
2 13 14
2 14 15
2 15 16
2 16 17
2 17 18
2 18 19
2 19 20
2 20 21
2 21 22
2 22 23
2 23 24
2 24 25
2 25 26
2 26 27
2 27 28
2 28 29
2 29 30
2 30 31
2 31 32
2 32 33
2 33 34
2 34 35
2 35 36
2 36 37
2 37 38
2 38 39
2 39 40
2 40 41
2 41 42
2 42 43
2 43 44
2 44 45
2 45 46
2 46 47
2 47 48
2 48 49
2 49 50
2 50 51
2 51 52
2 52 53
2 53 54
2 54 55
2 55 56
2 56 57
2 57 58
2 58 59
2 59 60
2 60 61
2 61 62
2 62 63
2 63 64
2 64 65
2 65 66
2 66 67
2 67 68
2 68 69
2 69 70
2 70 71
2 71 72
2 72 73
2 73 74
2 74 75
2 75 76
2 76 77
2 77 78
2 78 79
2 79 80
2 80 81
2 81 82
2 82 83
2 83 84
2 84 85
2 85 86
2 86 87
2 87 88
2 88 89
2 89 90
2 90 91
2 91 92
2 92 93
2 93 94
2 94 95
2 95 96
2 96 97
2 97 98
2 98 99
2 99 100
2 100 1

CELL_TYPES 100
3
3
3
3
3
3
3
3
3
3
3
3
3
3
3
3
3
3
3
3
3
3
3
3
3
3
3
3
3
3
3
3
3
3
3
3
3
3
3
3
3
3
3
3
3
3
3
3
3
3
3
3
3
3
3
3
3
3
3
3
3
3
3
3
3
3
3
3
3
3
3
3
3
3
3
3
3
3
3
3
3
3
3
3
3
3
3
3
3
3
3
3
3
3
3
3
3
3
3
3

POINT_DATA 101
SCALARS MODE2_619.3044_Hz float 1
LOOKUP_TABLE default
0.02667832639425423
0.0
0.00027042069938373756
0.026699083007919962
0.051226201980524154
0.07359708701882048
0.09382103666866715
0.11191006164382647
0.12787948854935227
0.14174868299595036
0.15354173192877954
0.16328807272750234
0.17102307352289706
0.17678857506283804
0.1806334097950444
0.1826139209232872
0.18279451462093835
0.18124829451165347
0.1780578524601111
0.17331632962095828
0.1671289269340401
0.1596151531053225
0.15091228306524565
0.14118081837980806
0.13061329096678734
0.11944868054755584
0.10799616053171027
0.09667354918822504
0.08606517552256139
0.07699038186628254
0.07052139906996478
0.0677930767341908
0.069501413157734
0.07546310527553234
0.0847864704938791
0.09641173806822753
0.10945160536274122
0.12325377272168135
0.13735162014845098
0.15140445605845224
0.16515386844506685
0.17839589591397076
0.19096401355270906
0.2027188105813003
0.21354169713990498
0.22333103645466829
0.23199975169910012
0.23947384093246493
0.24569145754367722
0.2506023455246499
0.25416749795121163
0.2563589555978672
0.25715969339290257
0.2565635628299336
0.2545752729356508
0.25121040379507276
0.24649545700115738
0.24046795850898092
0.23317664320751727
0.224681769745335
0.21505564287344375
0.2043834655890343
0.19276471631338998
0.18031536755705324
0.16717146778713352
0.15349495947738576
0.13948320450631146
0.1253846671393985
0.11152460413669278
0.09834571135528687
0.08646546035877668
0.07673032312149616
0.07018092003459671
0.06776358520223974
0.0697975269831806
0.07570959356788932
0.08439972464774075
0.09476895026186898
0.10595814165819112
0.11735092830459416
0.1285076113813822
0.13910468075092816
0.14889365925404818
0.15767548617693478
0.16528493749394357
0.17158112105142395
0.17644159358226474
0.17975864487127408
0.18143689083568149
0.18139166359648984
0.17954788762881996
0.17583924915808627
0.17020753655747473
0.16260207255394285
0.15297918586723497
0.1413016869830855
0.12753832390979083
0.11166320132919325
0.09365515225078395
0.07349705764895377
0.05117512820322159

