# vtk DataFile Version 2.0
mesh vtk view
ASCII
DATASET UNSTRUCTURED_GRID
POINTS 101 double
-0.005321809546469032 0.0 0.0
2.0 0.0 0.0
0.0199999999999621 -5.394369340398935e-05 0.0
0.034678190453504 -0.00020997024078170254 0.0
0.049791695347338814 -0.0004593753701383716 0.0
0.0653402637298911 -0.0007934633877221735 0.0
0.08132325913085178 -0.0012035566091171495 0.0
0.0977394902453699 -0.0016810080113943571 0.0
0.11458705813824879 -0.002217216776343336 0.0
0.131863219921929 -0.0028036463959894573 0.0
0.14956426883518933 -0.003431845013377232 0.0
0.16768543061746155 -0.004093467674059129 0.0
0.18622077603711085 -0.004780300166960996 0.0
0.20516314939154 -0.005484284137372089 0.0
0.22450411275315038 -0.006197543159788273 0.0
0.24423390568863967 -0.006912409464272285 0.0
0.264341420130427 -0.007621451016915962 0.0
0.2848141900288046 -0.00831749866292959 0.0
0.3056383953622732 -0.0089936730498522 0.0
0.32679888003189594 -0.009643411058370835 0.0
0.34827918311417866 -0.010260491479257627 0.0
0.37006158289619706 -0.010839059686956752 0.0
0.3921271530671138 -0.011373651073352127 0.0
0.4144558303924381 -0.01185921301918113 0.0
0.43702649315156256 -0.01229112519538539 0.0
0.45981704957597086 -0.012665218002349215 0.0
0.4828045354852957 -0.012977788971406395 0.0
0.5059652202815896 -0.013225616970127325 0.0
0.529274720429017 -0.01340597407065156 0.0
0.552708119517094 -0.013516634958624244 0.0
0.5762400939807945 -0.013555883779038195 0.0
0.599845043530623 -0.013522518334384271 0.0
0.6234972253302788 -0.013415851569873799 0.0
0.6471708909490514 -0.013235710300016124 0.0
0.6708404251106753 -0.012982431150411089 0.0
0.694480485260177 -0.01265685370814329 0.0
0.7180661409753069 -0.012260310893538596 0.0
0.7415730122595324 -0.01179461658515567 0.0
0.7649774057692218 -0.011262050548632451 0.0
0.7882564480485905 -0.010665340738283305 0.0
0.8113882148720627 -0.010007643058046571 0.0
0.8343518558248744 -0.009292518685412808 0.0
0.8571277132888018 -0.008523909078226114 0.0
0.8796974350407232 -0.007706108799650678 0.0
0.9020440797170429 -0.006843736311045141 0.0
0.9241522144466104 -0.005941702895904883 0.0
0.9460080040083846 -0.005005179890340115 0.0
0.967599290927409 -0.004039564406684573 0.0
0.9889156659833851 -0.003050443746711135 0.0
1.0099485286698706 -0.00204355870950995 0.0
1.0306911372085683 -0.0010247660063116548 0.0
1.0511386477919247 -3.694871043313904e-13 0.0
1.071288142797815 0.0010247660055776695 0.0
1.0911386477921616 0.002043558708786198 0.0
1.11069113720897 0.003050443746000442 0.0
1.1299485286704083 0.004039564405989588 0.0
1.1489156659840527 0.00500517988966338 0.0
1.1675992909281978 0.005941702895248673 0.0
1.1860080040092853 0.0068437363104115025 0.0
1.2041522144476131 0.0077061087990414265 0.0
1.222044079718135 0.008523909077642758 0.0
1.2396974350418943 0.009292518684856695 0.0
1.2571277132900402 0.010007643057518736 0.0
1.2743518558261675 0.010665340737784502 0.0
1.2913882148733995 0.01126205054816323 0.0
1.308256448049959 0.011794616584716297 0.0
1.3249774057706107 0.012260310893129086 0.0
1.3415730122609284 0.012656853707763415 0.0
1.3580661409766999 0.012982431150060399 0.0
1.374480485261556 0.013235710299693964 0.0
1.3908404251120325 0.013415851569579345 0.0
1.407170890950377 0.013522518334116527 0.0
1.4234972253315665 0.01355588377879604 0.0
1.4398450435318657 0.013516634958406444 0.0
1.4562400939819886 0.013405974070456808 0.0
1.4727081195182352 0.0132256169699543 0.0
1.4892747204301044 0.012977788971253706 0.0
1.505965220282619 0.01266521800221543 0.0
1.5228045354862658 0.012291125195269065 0.0
1.5398170495768786 0.011859213019080833 0.0
1.5570264931524096 0.011373651073266452 0.0
1.5744558303932243 0.010839059686884334 0.0
1.5921271530678411 0.01026049147919714 0.0
1.6100615828968647 0.009643411058321047 0.0
1.628279183114788 0.008993673049811822 0.0
1.6467988800324473 0.0083174986628975 0.0
1.6656383953627716 0.007621451016891074 0.0
1.6848141900292481 0.006912409464253581 0.0
1.7043414201308147 0.00619754315977479 0.0
1.7242339056889768 0.005484284137363413 0.0
1.7445041127534435 0.004780300166956731 0.0
1.7651631493917963 0.004093467674058518 0.0
1.7862207760373388 0.0034318450133793738 0.0
1.8076854306176633 0.002803646395993538 0.0
1.829564268835366 0.0022172167763485876 0.0
1.8518632199220815 0.0016810080114000017 0.0
1.8745870581383806 0.001203556609122441 0.0
1.8977394902454803 0.0007934633877266541 0.0
1.921323259130937 0.0004593753701417648 0.0
1.9453402637299513 0.00020997024078384403 0.0
1.9697916953473789 5.394369340472487e-05 0.0

CELLS 100 300
2 0 2
2 2 3
2 3 4
2 4 5
2 5 6
2 6 7
2 7 8
2 8 9
2 9 10
2 10 11
2 11 12
2 12 13
2 13 14
2 14 15
2 15 16
2 16 17
2 17 18
2 18 19
2 19 20
2 20 21
2 21 22
2 22 23
2 23 24
2 24 25
2 25 26
2 26 27
2 27 28
2 28 29
2 29 30
2 30 31
2 31 32
2 32 33
2 33 34
2 34 35
2 35 36
2 36 37
2 37 38
2 38 39
2 39 40
2 40 41
2 41 42
2 42 43
2 43 44
2 44 45
2 45 46
2 46 47
2 47 48
2 48 49
2 49 50
2 50 51
2 51 52
2 52 53
2 53 54
2 54 55
2 55 56
2 56 57
2 57 58
2 58 59
2 59 60
2 60 61
2 61 62
2 62 63
2 63 64
2 64 65
2 65 66
2 66 67
2 67 68
2 68 69
2 69 70
2 70 71
2 71 72
2 72 73
2 73 74
2 74 75
2 75 76
2 76 77
2 77 78
2 78 79
2 79 80
2 80 81
2 81 82
2 82 83
2 83 84
2 84 85
2 85 86
2 86 87
2 87 88
2 88 89
2 89 90
2 90 91
2 91 92
2 92 93
2 93 94
2 94 95
2 95 96
2 96 97
2 97 98
2 98 99
2 99 100
2 100 1

CELL_TYPES 100
3
3
3
3
3
3
3
3
3
3
3
3
3
3
3
3
3
3
3
3
3
3
3
3
3
3
3
3
3
3
3
3
3
3
3
3
3
3
3
3
3
3
3
3
3
3
3
3
3
3
3
3
3
3
3
3
3
3
3
3
3
3
3
3
3
3
3
3
3
3
3
3
3
3
3
3
3
3
3
3
3
3
3
3
3
3
3
3
3
3
3
3
3
3
3
3
3
3
3
3

POINT_DATA 101
SCALARS MODE2_619.3044_Hz float 1
LOOKUP_TABLE default
0.02667832639425423
0.0
0.00027042069938373756
0.026699083007919962
0.051226201980524154
0.07359708701882048
0.09382103666866715
0.11191006164382647
0.12787948854935227
0.14174868299595036
0.15354173192877954
0.16328807272750234
0.17102307352289706
0.17678857506283804
0.1806334097950444
0.1826139209232872
0.18279451462093835
0.18124829451165347
0.1780578524601111
0.17331632962095828
0.1671289269340401
0.1596151531053225
0.15091228306524565
0.14118081837980806
0.13061329096678734
0.11944868054755584
0.10799616053171027
0.09667354918822504
0.08606517552256139
0.07699038186628254
0.07052139906996478
0.0677930767341908
0.069501413157734
0.07546310527553234
0.0847864704938791
0.09641173806822753
0.10945160536274122
0.12325377272168135
0.13735162014845098
0.15140445605845224
0.16515386844506685
0.17839589591397076
0.19096401355270906
0.2027188105813003
0.21354169713990498
0.22333103645466829
0.23199975169910012
0.23947384093246493
0.24569145754367722
0.2506023455246499
0.25416749795121163
0.2563589555978672
0.25715969339290257
0.2565635628299336
0.2545752729356508
0.25121040379507276
0.24649545700115738
0.24046795850898092
0.23317664320751727
0.224681769745335
0.21505564287344375
0.2043834655890343
0.19276471631338998
0.18031536755705324
0.16717146778713352
0.15349495947738576
0.13948320450631146
0.1253846671393985
0.11152460413669278
0.09834571135528687
0.08646546035877668
0.07673032312149616
0.07018092003459671
0.06776358520223974
0.0697975269831806
0.07570959356788932
0.08439972464774075
0.09476895026186898
0.10595814165819112
0.11735092830459416
0.1285076113813822
0.13910468075092816
0.14889365925404818
0.15767548617693478
0.16528493749394357
0.17158112105142395
0.17644159358226474
0.17975864487127408
0.18143689083568149
0.18139166359648984
0.17954788762881996
0.17583924915808627
0.17020753655747473
0.16260207255394285
0.15297918586723497
0.1413016869830855
0.12753832390979083
0.11166320132919325
0.09365515225078395
0.07349705764895377
0.05117512820322159

