# vtk DataFile Version 2.0
mesh vtk view
ASCII
DATASET UNSTRUCTURED_GRID
POINTS 101 double
-0.0017739365154896762 0.0 0.0
2.0 0.0 0.0
0.0199999999999621 -1.7981231134663105e-05 0.0
0.038226063484451026 -6.999008026056746e-05 0.0
0.05659723178237015 -0.0001531251233794571 0.0
0.07511342124319258 -0.000264487795907391 0.0
0.09377441971014978 -0.0004011855363723829 0.0
0.11257983008162736 -0.0005603360037981186 0.0
0.13152901937922978 -0.0007390722587811116 0.0
0.15062107330710267 -0.0009345487986631519 0.0
0.16985475627816907 -0.0011439483377924098 0.0
0.1892284768722394 -0.0013644892246863754 0.0
0.2087402586787687 -0.0015934333889869976 0.0
0.22838771646355674 -0.001828094712457362 0.0
0.2481680375840638 -0.002065847719929423 0.0
0.26807796856252264 -0.0023041364880907605 0.0
0.2881138067097461 -0.002540483672305319 0.0
0.3082713966758331 -0.002772499554309861 0.0
0.3285461317869504 -0.002997891016617398 0.0
0.348932960010119 -0.0032144703527902762 0.0
0.369426394370841 -0.003420163826419207 0.0
0.3900205276314749 -0.0036130198956522484 0.0
0.41070905102174154 -0.0037912170244507066 0.0
0.43148527679681076 -0.0039530710063937075 0.0
0.45234216438314656 -0.004097041731795127 0.0
0.4732723498579105 -0.0042217393341164025 0.0
0.49426817849431315 -0.004325929657135462 0.0
0.5153217400930389 -0.004408538990042439 0.0
0.536424906808809 -0.004468658023550517 0.0
0.5575693731714625 -0.004505544986208078 0.0
0.5787466979926571 -0.004518627926346062 0.0
0.5999483478425609 -0.0045075061114614205 0.0
0.6211657417757407 -0.004471950523291263 0.0
0.6423902969819593 -0.004411903433338705 0.0
0.663613475035795 -0.004327477050137027 0.0
0.6848268284189234 -0.004218951236047761 0.0
0.7060220469905943 -0.0040867702978461965 0.0
0.7271910040852972 -0.003931538861718554 0.0
0.7483258019218214 -0.0037540168495441483 0.0
0.7694188160149055 -0.003555113579427766 0.0
0.7904627382893573 -0.0033358810193488547 0.0
0.8114506186069222 -0.003097506228470934 0.0
0.8323759044281924 -0.0028413030260753696 0.0
0.8532324783454606 -0.0025687029332168913 0.0
0.8740146932375283 -0.0022812454370150456 0.0
0.894717404814012 -0.001980567631968293 0.0
0.9153360013345644 -0.0016683932967800374 0.0
0.9358664303075336 -0.0013465214688948566 0.0
0.95630522199282 -0.0010168145822370444 0.0
0.976649509554943 -0.0006811862365033162 0.0
0.99689704573447 -0.00034158866877055145 0.0
1.0170462159288978 -1.2316236811046338e-13 0.0
1.0370960475975484 0.00034158866852588963 0.0
1.0570462159290326 0.0006811862362620657 0.0
1.0768970457346707 0.0010168145820001466 0.0
1.0966495095551847 0.001346521468663195 0.0
1.1163052219931016 0.0016683932965544587 0.0
1.135866430307852 0.0019805676317495567 0.0
1.1553360013349163 0.0022812454368038326 0.0
1.1747174048143945 0.0025687029330138072 0.0
1.1940146932379363 0.0028413030258809175 0.0
1.2132324783458914 0.0030975062282855635 0.0
1.232375904428642 0.00333588101917291 0.0
1.2514506186073857 0.0035551135792614985 0.0
1.270462738289832 0.0037540168493877405 0.0
1.289418816015387 0.003931538861572097 0.0
1.3083258019223063 0.004086770297709693 0.0
1.3271910040857802 0.004218951235921135 0.0
1.3460220469910726 0.004327477050020131 0.0
1.3648268284193932 0.004411903433231318 0.0
1.383613475036254 0.004471950523193112 0.0
1.4023902969824036 0.0045075061113721724 0.0
1.421165741776169 0.004518627926265344 0.0
1.4399483478429704 0.004505544986135478 0.0
1.4587466979930468 0.0044686580234856 0.0
1.4775693731718305 0.0044085389899847635 0.0
1.4964249068091555 0.0043259296570845665 0.0
1.5153217400933623 0.004221739334071807 0.0
1.5342681784946133 0.004097041731756353 0.0
1.5532723498581855 0.003953071006360275 0.0
1.572342164383398 0.0037912170244221483 0.0
1.591485276797038 0.003613019895628109 0.0
1.6107090510219457 0.0034201638263990446 0.0
1.6300205276316548 0.00321447035277368 0.0
1.6494263943709981 0.0029978910166039386 0.0
1.6689329600102532 0.002772499554299165 0.0
1.6885461317870631 0.0025404836722970232 0.0
1.7082713966759233 0.0023041364880845255 0.0
1.7281138067098143 0.0020658477199249287 0.0
1.7480779685625703 0.0018280947124544697 0.0
1.7681680375840945 0.001593433388985576 0.0
1.7883877164635802 0.001364489224686172 0.0
1.8087402586787964 0.0011439483377931239 0.0
1.829228476872273 0.000934548798664512 0.0
1.8498547562782093 0.0007390722587828621 0.0
1.870621073307149 0.0005603360038000003 0.0
1.8915290193792842 0.0004011855363741468 0.0
1.912579830081686 0.0002644877959088845 0.0
1.9337744197102071 0.00015312512338058818 0.0
1.9551134212432464 6.99900802612813e-05 0.0
1.9765972317824243 1.7981231134908277e-05 0.0

CELLS 100 300
2 0 2
2 2 3
2 3 4
2 4 5
2 5 6
2 6 7
2 7 8
2 8 9
2 9 10
2 10 11
2 11 12
2 12 13
2 13 14
2 14 15
2 15 16
2 16 17
2 17 18
2 18 19
2 19 20
2 20 21
2 21 22
2 22 23
2 23 24
2 24 25
2 25 26
2 26 27
2 27 28
2 28 29
2 29 30
2 30 31
2 31 32
2 32 33
2 33 34
2 34 35
2 35 36
2 36 37
2 37 38
2 38 39
2 39 40
2 40 41
2 41 42
2 42 43
2 43 44
2 44 45
2 45 46
2 46 47
2 47 48
2 48 49
2 49 50
2 50 51
2 51 52
2 52 53
2 53 54
2 54 55
2 55 56
2 56 57
2 57 58
2 58 59
2 59 60
2 60 61
2 61 62
2 62 63
2 63 64
2 64 65
2 65 66
2 66 67
2 67 68
2 68 69
2 69 70
2 70 71
2 71 72
2 72 73
2 73 74
2 74 75
2 75 76
2 76 77
2 77 78
2 78 79
2 79 80
2 80 81
2 81 82
2 82 83
2 83 84
2 84 85
2 85 86
2 86 87
2 87 88
2 88 89
2 89 90
2 90 91
2 91 92
2 92 93
2 93 94
2 94 95
2 95 96
2 96 97
2 97 98
2 98 99
2 99 100
2 100 1

CELL_TYPES 100
3
3
3
3
3
3
3
3
3
3
3
3
3
3
3
3
3
3
3
3
3
3
3
3
3
3
3
3
3
3
3
3
3
3
3
3
3
3
3
3
3
3
3
3
3
3
3
3
3
3
3
3
3
3
3
3
3
3
3
3
3
3
3
3
3
3
3
3
3
3
3
3
3
3
3
3
3
3
3
3
3
3
3
3
3
3
3
3
3
3
3
3
3
3
3
3
3
3
3
3

POINT_DATA 101
SCALARS MODE2_619.3044_Hz float 1
LOOKUP_TABLE default
0.02667832639425423
0.0
0.00027042069938373756
0.026699083007919962
0.051226201980524154
0.07359708701882048
0.09382103666866715
0.11191006164382647
0.12787948854935227
0.14174868299595036
0.15354173192877954
0.16328807272750234
0.17102307352289706
0.17678857506283804
0.1806334097950444
0.1826139209232872
0.18279451462093835
0.18124829451165347
0.1780578524601111
0.17331632962095828
0.1671289269340401
0.1596151531053225
0.15091228306524565
0.14118081837980806
0.13061329096678734
0.11944868054755584
0.10799616053171027
0.09667354918822504
0.08606517552256139
0.07699038186628254
0.07052139906996478
0.0677930767341908
0.069501413157734
0.07546310527553234
0.0847864704938791
0.09641173806822753
0.10945160536274122
0.12325377272168135
0.13735162014845098
0.15140445605845224
0.16515386844506685
0.17839589591397076
0.19096401355270906
0.2027188105813003
0.21354169713990498
0.22333103645466829
0.23199975169910012
0.23947384093246493
0.24569145754367722
0.2506023455246499
0.25416749795121163
0.2563589555978672
0.25715969339290257
0.2565635628299336
0.2545752729356508
0.25121040379507276
0.24649545700115738
0.24046795850898092
0.23317664320751727
0.224681769745335
0.21505564287344375
0.2043834655890343
0.19276471631338998
0.18031536755705324
0.16717146778713352
0.15349495947738576
0.13948320450631146
0.1253846671393985
0.11152460413669278
0.09834571135528687
0.08646546035877668
0.07673032312149616
0.07018092003459671
0.06776358520223974
0.0697975269831806
0.07570959356788932
0.08439972464774075
0.09476895026186898
0.10595814165819112
0.11735092830459416
0.1285076113813822
0.13910468075092816
0.14889365925404818
0.15767548617693478
0.16528493749394357
0.17158112105142395
0.17644159358226474
0.17975864487127408
0.18143689083568149
0.18139166359648984
0.17954788762881996
0.17583924915808627
0.17020753655747473
0.16260207255394285
0.15297918586723497
0.1413016869830855
0.12753832390979083
0.11166320132919325
0.09365515225078395
0.07349705764895377
0.05117512820322159

