# vtk DataFile Version 2.0
mesh vtk view
ASCII
DATASET UNSTRUCTURED_GRID
POINTS 7 double
-0.033886322248912894 0.0 0.0
2.0 0.0 0.0
0.3333333333326418 -0.008839688855496143 0.0
0.6327803444159943 -0.012982994252110908 0.0
1.0158051430279318 -1.3449982817705743e-13 0.0
1.3850216879407482 0.012982994252057754 0.0
1.6824718096969526 0.008839688855549591 0.0

CELLS 6 18
2 0 2
2 2 3
2 3 4
2 4 5
2 5 6
2 6 1

CELL_TYPES 6
3
3
3
3
3
3

POINT_DATA 7
SCALARS MODE2_620.5202_Hz float 1
LOOKUP_TABLE default
0.1692138172316147
0.0
0.044141629870330705
0.18120828578745038
0.07892413241087073
0.2661271741789052
0.09042954254516906

