# vtk DataFile Version 2.0
mesh vtk view
ASCII
DATASET UNSTRUCTURED_GRID
POINTS 101 double
-0.0005044700747179646 0.0 0.0
2.0 0.0 0.0
0.0199999999999621 5.084703652272879e-06 0.0
0.040504470074599265 2.001879447507472e-05 0.0
0.06098493895643241 4.432227381082676e-05 0.0
0.08144140978692753 7.751525102535653e-05 0.0
0.10187389061779055 0.00011911806476206859 0.0
0.12228239669589239 0.0001686514486938391 0.0
0.14266695262812362 0.00022563673937184435 0.0
0.1630275944262408 0.00028959612377243516 0.0
0.18336437143184844 0.0003600529241463057 0.0
0.2036773481216908 0.00043653191777842686 0.0
0.22396660579348476 0.0005185596892728774 0.0
0.24423224413263506 0.0006056650129841052 0.0
0.2644743826602285 0.0006973792632251689 0.0
0.28469316206284406 0.000793236849894683 0.0
0.3048887454047274 0.0008927756771768199 0.0
0.3250613192230392 0.000995537622984174 0.0
0.3452110945070355 0.0011010690368310207 0.0
0.3653383075620897 0.001208921253844073 0.0
0.38544322075961107 0.0013186511226403307 0.0
0.40552612317404274 0.0014298215448266074 0.0
0.4255873311082643 0.001542002023903002 0.0
0.4456271885088334 0.001654769221382737 0.0
0.46564606727265795 0.0017677075179739613 0.0
0.4856443674468183 0.0018804095777048883 0.0
0.5056225173234007 0.001992476912912304 0.0
0.5255809734313466 0.00210352044805495 0.0
0.5455202204274593 0.0022131610803575417 0.0
0.5654407708888548 0.0023210302353383555 0.0
0.5853431650092817 0.002426770415323152 0.0
0.6052279702018759 0.002530035739100971 0.0
0.6250957806110545 0.0026304924709327398 0.0
0.6449472165363873 0.002727819537181767 0.0
0.664782923771422 0.0028217090288960253 0.0
0.6846035728605635 0.0029118666887354193 0.0
0.7044098582772443 0.0029980123807031973 0.0
0.7242024975267374 0.003079880541208941 0.0
0.7439822301770893 0.0031572206100612325 0.0
0.7637498168217649 0.0032297974400610973 0.0
0.7835060379777024 0.003297391683942281 0.0
0.803251692922587 0.0033598001574816545 0.0
0.8229875984752497 0.0034168361776820907 0.0
0.8427145877231881 0.003468329875011002 0.0
0.8624335087013011 0.0035141284787603626 0.0
0.8821452230260022 0.003554096574678101 0.0
0.9018506044889589 0.0035881163341064176 0.0
0.9215505376147674 0.0036160877139493333 0.0
0.9412459161869368 0.0036379286268798643 0.0
0.9609376417466075 0.0036535750812861697 0.0
0.9806266220684786 0.0036629812905458756 0.0
1.0003137696184776 0.0036661197513084 0.0
1.0199999999976699 0.003662981290556041 0.0
1.0396862303768817 0.003653575081306367 0.0
1.0593733779269638 0.0036379286269098976 0.0
1.0790623582489358 0.0036160877139889414 0.0
1.0987540838087047 0.0035881163341552743 0.0
1.1184494623809693 0.0035540965747358237 0.0
1.1381493955068704 0.00351412847882651 0.0
1.157854776969917 0.0034683298750850856 0.0
1.1775664912947044 0.003416836177763577 0.0
1.1972854122729022 0.003359800157569959 0.0
1.2170124015209236 0.003297391684036791 0.0
1.2367483070736665 0.0032297974401611722 0.0
1.2564939620186313 0.0031572206101661954 0.0
1.2762501831746476 0.003079880541318106 0.0
1.2960177698194009 0.0029980123808158645 0.0
1.3157975024698287 0.0029118666888508756 0.0
1.3355901417193985 0.002821709029013543 0.0
1.3553964271361556 0.0027278195373006313 0.0
1.3752170762253741 0.0026304924710522475 0.0
1.395052783460485 0.002530035739220435 0.0
1.414904219385896 0.0024267704154418927 0.0
1.4347720297951536 0.002321030235455729 0.0
1.4546568349878286 0.0022131610804729343 0.0
1.4745592291083367 0.0021035204481677956 0.0
1.4944797795698164 0.0019924769130220633 0.0
1.5144190265660147 0.001880409577811062 0.0
1.5343774826740486 0.0017677075180760977 0.0
1.55435563255072 0.0016547692214804342 0.0
1.5743539327249725 0.0015420020239958936 0.0
1.5943728114888915 0.0014298215449143883 0.0
1.6144126688895577 0.001318651122722742 0.0
1.6344738768238778 0.0012089212539209146 0.0
1.6545567792384115 0.0011010690369021273 0.0
1.6746616924360367 0.000995537623049449 0.0
1.6947889054911984 0.0008927756772362174 0.0
1.714938680775303 0.0007932368499482092 0.0
1.7351112545937266 0.0006973792632728773 0.0
1.755306837935724 0.0006056650130261545 0.0
1.7755256173384544 0.0005185596893094641 0.0
1.7957677558661513 0.0004365319178097419 0.0
1.816033394205396 0.0003600529241725708 0.0
1.836322651877285 0.0002895961237939302 0.0
1.856635628567225 0.00022563673938890024 0.0
1.8769724055729318 0.0001686514487068325 0.0
1.8973330473711518 0.00011911806477142693 0.0
1.917717603303494 7.751525103158332e-05 0.0
1.9381261093817166 4.432227381449026e-05 0.0
1.9585585902127036 2.001879447680012e-05 0.0
1.9790150610433241 5.084703652732904e-06 0.0

CELLS 100 300
2 0 2
2 2 3
2 3 4
2 4 5
2 5 6
2 6 7
2 7 8
2 8 9
2 9 10
2 10 11
2 11 12
2 12 13
2 13 14
2 14 15
2 15 16
2 16 17
2 17 18
2 18 19
2 19 20
2 20 21
2 21 22
2 22 23
2 23 24
2 24 25
2 25 26
2 26 27
2 27 28
2 28 29
2 29 30
2 30 31
2 31 32
2 32 33
2 33 34
2 34 35
2 35 36
2 36 37
2 37 38
2 38 39
2 39 40
2 40 41
2 41 42
2 42 43
2 43 44
2 44 45
2 45 46
2 46 47
2 47 48
2 48 49
2 49 50
2 50 51
2 51 52
2 52 53
2 53 54
2 54 55
2 55 56
2 56 57
2 57 58
2 58 59
2 59 60
2 60 61
2 61 62
2 62 63
2 63 64
2 64 65
2 65 66
2 66 67
2 67 68
2 68 69
2 69 70
2 70 71
2 71 72
2 72 73
2 73 74
2 74 75
2 75 76
2 76 77
2 77 78
2 78 79
2 79 80
2 80 81
2 81 82
2 82 83
2 83 84
2 84 85
2 85 86
2 86 87
2 87 88
2 88 89
2 89 90
2 90 91
2 91 92
2 92 93
2 93 94
2 94 95
2 95 96
2 96 97
2 97 98
2 98 99
2 99 100
2 100 1

CELL_TYPES 100
3
3
3
3
3
3
3
3
3
3
3
3
3
3
3
3
3
3
3
3
3
3
3
3
3
3
3
3
3
3
3
3
3
3
3
3
3
3
3
3
3
3
3
3
3
3
3
3
3
3
3
3
3
3
3
3
3
3
3
3
3
3
3
3
3
3
3
3
3
3
3
3
3
3
3
3
3
3
3
3
3
3
3
3
3
3
3
3
3
3
3
3
3
3
3
3
3
3
3
3

POINT_DATA 101
SCALARS MODE1_224.6674_Hz float 1
LOOKUP_TABLE default
0.009839986425673726
0.0
9.918014452078463e-05
0.009847731018820213
0.01923125756797109
0.028156174108291288
0.03662511581195344
0.04464086832166672
0.05220633260853886
0.05932455773784835
0.06599878065283044
0.07223246627141555
0.07802934662242618
0.08339345874820135
0.08832918136445082
0.09284127036458886
0.09693489330658514
0.1006156630592228
0.10388967082205085
0.10676351877379067
0.10924435264962298
0.11133989460088535
0.11305847675240305
0.1144090759440515
0.11540135022666352
0.11604567777848339
0.11635319901867203
0.11633586281913487
0.1160064778546191
0.11537877028068476
0.11446744908360029
0.11328828059331075
0.11185817376935578
0.11019527792462196
0.10831909448671911
0.10625060412339407
0.10401240994341089
0.10162889633141185
0.09912640100617437
0.09653339472872755
0.09388065825194737
0.09120143905313122
0.08853156063396189
0.08590944452592082
0.08337599020785583
0.0809742430539394
0.07874876974297221
0.07674466192433503
0.0750061125953192
0.07357456543914814
0.07248652832715803
0.07177125602346147
0.07144861109297575
0.07152745916654862
0.072004905593091
0.07286653094130174
0.07408757674419217
0.0756348444580956
0.07746896438320602
0.07954668951337497
0.08182294861189174
0.0842525068231606
0.08679118850547911
0.08939669236272023
0.09202906909452273
0.09465094384422962
0.0972275603450378
0.09972671012242354
0.1021185946218455
0.10437565403648802
0.10647238523386
0.10838516268797715
0.11009207034340475
0.1115727483279264
0.11280825586717572
0.11378095020178268
0.11447438043331067
0.11487319479053339
0.11496305964658883
0.11473058861955157
0.11416328018151457
0.11324946233889582
0.11197824310113592
0.11033946561003373
0.10832366694849219
0.10592203978109833
0.103126396098001
0.0999291324380022
0.0963231960575097
0.09230205159027571
0.08785964781016664
0.0829903841671253
0.07768907681659548
0.0719509239068135
0.06577146992904184
0.05914656897777699
0.052072346822797856
0.04454516179784075
0.03656156479196276
0.0281182596948488
0.019212071430569067

