# vtk DataFile Version 2.0
mesh vtk view
ASCII
DATASET UNSTRUCTURED_GRID
POINTS 101 double
0.0003923656136695283 0.0 0.0
2.0 0.0 0.0
0.0199999999999621 -3.954769507323353e-06 0.0
0.039607634386288636 -1.5570173480613685e-05 0.0
0.059233936367016245 -3.447287963064306e-05 0.0
0.0788789034987778 -6.028963968638845e-05 0.0
0.09854252951913851 -9.26473837038312e-05 0.0
0.11822480256942786 -0.00013117334898409718 0.0
0.13792570351096214 -0.00017549524173365684 0.0
0.15764520433459406 -0.00022524142960078306 0.0
0.17738326666351148 -0.00028004116322490465 0.0
0.19713984034913526 -0.0003395248249387767 0.0
0.21691486215990757 -0.0004033242027677938 0.0
0.2367082545627329 -0.00047107278787652667 0.0
0.2565199245967476 -0.0005424060936195762 0.0
0.2763497628390575 -0.0006169619943625316 0.0
0.29619764246193325 -0.0006943810822486382 0.0
0.3160634183809202 -0.0007743070400988025 0.0
0.3359469264932639 -0.0008563870286463501 0.0
0.3558479830058956 -0.0009402720863231688 0.0
0.37576638385216427 -0.0010256175398313692 0.0
0.3957019041963913 -0.0011120834237540289 0.0
0.4156542980252263 -0.0011993349074801137 0.0
0.4356232978246799 -0.0012870427277421298 0.0
0.4556086143416013 -0.0013748836250908599 0.0
0.4756099364282619 -0.0014625407826593586 0.0
0.4956269309685939 -0.0015497042655984597 0.0
0.5156592428845321 -0.0016360714595982956 0.0
0.5357064952207851 -0.001721347506944756 0.0
0.5557682893062628 -0.0018052457385965002 0.0
0.5758442049902714 -0.0018874881008068974 0.0
0.5959338009514831 -0.0019678055748563123 0.0
0.6160366150775737 -0.0020459385885032433 0.0
0.6361521649133222 -0.0021216374178080425 0.0
0.6562799481748582 -0.0021946625780302435 0.0
0.6764194433276444 -0.0022647852023497724 0.0
0.6965701102256775 -0.0023317874072135997 0.0
0.7167313908093014 -0.002395462643162511 0.0
0.7369027098589239 -0.002455616030047627 0.0
0.7570834758018504 -0.0025120646756030774 0.0
0.7772730815693508 -0.002564637976399554 0.0
0.7974709055010032 -0.0026131779002635113 0.0
0.8176763122932729 -0.002657539249308295 0.0
0.837888653989217 -0.0026975899027863372 0.0
0.8581072710061367 -0.00273321103903584 0.0
0.878331493197932 -0.0027642973358607474 0.0
0.8985606409488619 -0.002790757148749438 0.0
0.9187940262953513 -0.0028125126664050393 0.0
0.9390309540724491 -0.0028295000431287857 0.0
0.9592707230814905 -0.002841669507667023 0.0
0.9795126272754869 -0.00284898544820235 0.0
0.999755956958756 -0.002851426473239869 0.0
1.0199999999972167 -0.0028489854482102563 0.0
1.0402440430357018 -0.002841669507682732 0.0
1.0604873727190653 -0.0028295000431521446 0.0
1.0807292769131795 -0.0028125126664358454 0.0
1.1009690459223425 -0.0027907571487874377 0.0
1.1212059736995643 -0.0027642973359056425 0.0
1.1414393590461798 -0.002733211039087288 0.0
1.1616685067972379 -0.0026975899028439574 0.0
1.1818927289891625 -0.002657539249371673 0.0
1.202111346006214 -0.0026131779003321924 0.0
1.2223236877022914 -0.0025646379764730615 0.0
1.2425290944946947 -0.0025120646756809136 0.0
1.2627269184264833 -0.002455616030129265 0.0
1.2829165241941205 -0.0023954626432474177 0.0
1.3030972901371842 -0.0023317874073012297 0.0
1.3232686091869437 -0.0022647852024395712 0.0
1.3434298897707062 -0.002194662578121646 0.0
1.363580556668878 -0.002121637417900493 0.0
1.3837200518218022 -0.002045938588596194 0.0
1.403847835083475 -0.0019678055749492284 0.0
1.423963384919361 -0.0018874881008992513 0.0
1.444066199045588 -0.0018052457386877904 0.0
1.464155795006935 -0.0017213475070345056 0.0
1.4842317106910767 -0.0016360714596860646 0.0
1.504293504776687 -0.001549704265683828 0.0
1.5243407571130712 -0.0014625407827419383 0.0
1.544373069029139 -0.0013748836251702993 0.0
1.5643900635695982 -0.0012870427278181165 0.0
1.5843913856563852 -0.0011993349075523625 0.0
1.604376702173431 -0.0011120834238223028 0.0
1.624345701973007 -0.0010256175398954668 0.0
1.6442980958019617 -0.0009402720863829344 0.0
1.6642336161463078 -0.0008563870287016553 0.0
1.6841520169926931 -0.0007743070401495719 0.0
1.7040530735054396 -0.0006943810822948363 0.0
1.7239365816178949 -0.0006169619944041631 0.0
1.7438023575369932 -0.0005424060936566827 0.0
1.7636502371599783 -0.0004710727879092316 0.0
1.7834800754023934 -0.00040332420279625016 0.0
1.8032917454364994 -0.0003395248249631328 0.0
1.8230851378394033 -0.0002800411632453331 0.0
1.8428601596502503 -0.00022524142961750145 0.0
1.862616733335947 -0.00017549524174692254 0.0
1.882354795664934 -0.00013117334899420316 0.0
1.9020742964886346 -9.26473837111099e-05 0.0
1.9217751974302406 -6.0289639691231516e-05 0.0
1.9414574704806065 -3.447287963349245e-05 0.0
1.9611210965010422 -1.557017348195566e-05 0.0
1.9807660636328757 -3.95476950768115e-06 0.0

CELLS 100 300
2 0 2
2 2 3
2 3 4
2 4 5
2 5 6
2 6 7
2 7 8
2 8 9
2 9 10
2 10 11
2 11 12
2 12 13
2 13 14
2 14 15
2 15 16
2 16 17
2 17 18
2 18 19
2 19 20
2 20 21
2 21 22
2 22 23
2 23 24
2 24 25
2 25 26
2 26 27
2 27 28
2 28 29
2 29 30
2 30 31
2 31 32
2 32 33
2 33 34
2 34 35
2 35 36
2 36 37
2 37 38
2 38 39
2 39 40
2 40 41
2 41 42
2 42 43
2 43 44
2 44 45
2 45 46
2 46 47
2 47 48
2 48 49
2 49 50
2 50 51
2 51 52
2 52 53
2 53 54
2 54 55
2 55 56
2 56 57
2 57 58
2 58 59
2 59 60
2 60 61
2 61 62
2 62 63
2 63 64
2 64 65
2 65 66
2 66 67
2 67 68
2 68 69
2 69 70
2 70 71
2 71 72
2 72 73
2 73 74
2 74 75
2 75 76
2 76 77
2 77 78
2 78 79
2 79 80
2 80 81
2 81 82
2 82 83
2 83 84
2 84 85
2 85 86
2 86 87
2 87 88
2 88 89
2 89 90
2 90 91
2 91 92
2 92 93
2 93 94
2 94 95
2 95 96
2 96 97
2 97 98
2 98 99
2 99 100
2 100 1

CELL_TYPES 100
3
3
3
3
3
3
3
3
3
3
3
3
3
3
3
3
3
3
3
3
3
3
3
3
3
3
3
3
3
3
3
3
3
3
3
3
3
3
3
3
3
3
3
3
3
3
3
3
3
3
3
3
3
3
3
3
3
3
3
3
3
3
3
3
3
3
3
3
3
3
3
3
3
3
3
3
3
3
3
3
3
3
3
3
3
3
3
3
3
3
3
3
3
3
3
3
3
3
3
3

POINT_DATA 101
SCALARS MODE1_224.6674_Hz float 1
LOOKUP_TABLE default
0.009839986425673726
0.0
9.918014452078463e-05
0.009847731018820213
0.01923125756797109
0.028156174108291288
0.03662511581195344
0.04464086832166672
0.05220633260853886
0.05932455773784835
0.06599878065283044
0.07223246627141555
0.07802934662242618
0.08339345874820135
0.08832918136445082
0.09284127036458886
0.09693489330658514
0.1006156630592228
0.10388967082205085
0.10676351877379067
0.10924435264962298
0.11133989460088535
0.11305847675240305
0.1144090759440515
0.11540135022666352
0.11604567777848339
0.11635319901867203
0.11633586281913487
0.1160064778546191
0.11537877028068476
0.11446744908360029
0.11328828059331075
0.11185817376935578
0.11019527792462196
0.10831909448671911
0.10625060412339407
0.10401240994341089
0.10162889633141185
0.09912640100617437
0.09653339472872755
0.09388065825194737
0.09120143905313122
0.08853156063396189
0.08590944452592082
0.08337599020785583
0.0809742430539394
0.07874876974297221
0.07674466192433503
0.0750061125953192
0.07357456543914814
0.07248652832715803
0.07177125602346147
0.07144861109297575
0.07152745916654862
0.072004905593091
0.07286653094130174
0.07408757674419217
0.0756348444580956
0.07746896438320602
0.07954668951337497
0.08182294861189174
0.0842525068231606
0.08679118850547911
0.08939669236272023
0.09202906909452273
0.09465094384422962
0.0972275603450378
0.09972671012242354
0.1021185946218455
0.10437565403648802
0.10647238523386
0.10838516268797715
0.11009207034340475
0.1115727483279264
0.11280825586717572
0.11378095020178268
0.11447438043331067
0.11487319479053339
0.11496305964658883
0.11473058861955157
0.11416328018151457
0.11324946233889582
0.11197824310113592
0.11033946561003373
0.10832366694849219
0.10592203978109833
0.103126396098001
0.0999291324380022
0.0963231960575097
0.09230205159027571
0.08785964781016664
0.0829903841671253
0.07768907681659548
0.0719509239068135
0.06577146992904184
0.05914656897777699
0.052072346822797856
0.04454516179784075
0.03656156479196276
0.0281182596948488
0.019212071430569067

