# vtk DataFile Version 2.0
mesh vtk view
ASCII
DATASET UNSTRUCTURED_GRID
POINTS 101 double
0.0009528879189117113 0.0 0.0
2.0 0.0 0.0
0.0199999999999621 -9.604440232070998e-06 0.0
0.03904711208109449 -3.781327845291894e-05 0.0
0.05813955974863115 -8.371985053156169e-05 0.0
0.07727733706868423 -0.00014641769638122905 0.0
0.09646042883248099 -0.00022500078899501854 0.0
0.11568880624038752 -0.0003185638475328073 0.0
0.13496242281273624 -0.0004262027299245951 0.0
0.15428121052731486 -0.0005470149004590444 0.0
0.17364507618330088 -0.0006800999678319111 0.0
0.19305389799128805 -0.0008245602891370289 0.0
0.21250752238892184 -0.0009795016352932132 0.0
0.23200576108154403 -0.0011440339134144216 0.0
0.2515483883070721 -0.0013172719416475417 0.0
0.2711351383241909 -0.0014983362720232907 0.0
0.29076570312268696 -0.0016863540568895492 0.0
0.3104397303545959 -0.0018804599545256628 0.0
0.33015682148465664 -0.0020797970695697067 0.0
0.3499165301582743 -0.002283517923927695 0.0
0.36971836078500997 -0.002490785453876181 0.0
0.3895617673353591 -0.0027007740291169263 0.0
0.40944615234832754 -0.0029126704895945607 0.0
0.429370866147084 -0.003125675195945171 0.0
0.4493352062596909 -0.003339003089506373 0.0
0.46933841704166407 -0.0035518847578870126 0.0
0.48937968949683963 -0.0037635675021676866 0.0
0.509458161292773 -0.003973316401881574 0.0
0.5295729169666137 -0.004180415374008692 0.0
0.5497229883171427 -0.004384168222305785 0.0
0.56990735497839 -0.0045838996733881775 0.0
0.5901249451699876 -0.0047789563960796136 0.0
0.6103746366191483 -0.004968708000650733 0.0
0.6306552576489064 -0.005152548014676673 0.0
0.6509655884270058 -0.005329894832359161 0.0
0.6713043623695699 -0.0055001926342780165 0.0
0.6916702676934483 -0.005662912274661597 0.0
0.7120619491109039 -0.005817552133394669 0.0
0.7324780096600706 -0.005963638930115664 0.0
0.7529170126644039 -0.006100728497893186 0.0
0.7733774838141312 -0.0062284065141132005 0.0
0.7938579133625133 -0.006346289186354239 0.0
0.8143567584295375 -0.006454023891177285 0.0
0.8348724454054851 -0.0065512897639096734 0.0
0.8554033724466589 -0.006637798237658465 0.0
0.8759479120553881 -0.006713293529947527 0.0
0.8965044137363013 -0.006777553075534347 0.0
0.9170712067207164 -0.006830387904126521 0.0
0.9376466027508944 -0.006871642961884191 0.0
0.9582288989157925 -0.006901197375762768 0.0
0.9788163805298672 -0.00691896465991999 0.0
0.9994073240464298 -0.006924892863582536 0.0
1.0199999999969336 -0.0069189646599391915 0.0
1.0405926759474644 -0.006901197375800919 0.0
1.0611836194641286 -0.00687164296194092 0.0
1.0817711010783317 -0.0068303879042013365 0.0
1.1023533972433661 -0.006777553075626631 0.0
1.1229287932736862 -0.006713293530056558 0.0
1.143495586258248 -0.0066377982377834105 0.0
1.1640520879393135 -0.006551289764049608 0.0
1.1845966275481987 -0.006454023891331204 0.0
1.205127554589534 -0.006346289186521036 0.0
1.2256432415656464 -0.006228406514291719 0.0
1.2461420866328374 -0.006100728498082217 0.0
1.2666225161813907 -0.005963638930313927 0.0
1.287082987331291 -0.005817552133600869 0.0
1.3075219903357989 -0.005662912274874413 0.0
1.3279380508851406 -0.0055001926344961 0.0
1.3483297323027734 -0.0053298948325811385 0.0
1.3686956376268293 -0.005152548014901195 0.0
1.3890344115695699 -0.0049687080008764695 0.0
1.409344742347844 -0.004778956396305268 0.0
1.4296253633777765 -0.004583899673612466 0.0
1.4498750548271095 -0.004384168222527489 0.0
1.4700926450188767 -0.004180415374226655 0.0
1.4902770116802895 -0.003973316402094727 0.0
1.5104270830309812 -0.00376356750237501 0.0
1.5305418387049814 -0.003551884758087563 0.0
1.5506203105010707 -0.003339003089699297 0.0
1.5706615829563972 -0.00312567519612971 0.0
1.5906647937385179 -0.0029126704897700223 0.0
1.610629133851268 -0.0027007740292827346 0.0
1.6305538476501629 -0.002490785454031847 0.0
1.6504382326632643 -0.00228351792407284 0.0
1.670281639213743 -0.002079797069704019 0.0
1.6900834698406033 -0.0018804599546489598 0.0
1.7098431785143402 -0.0016863540570017446 0.0
1.7295602696445147 -0.0014983362721243958 0.0
1.749234296876535 -0.0013172719417376575 0.0
1.768864861675137 -0.0011440339134938479 0.0
1.7884516116923554 -0.0009795016353623216 0.0
1.8079942389179668 -0.0008245602891961794 0.0
1.827492477610658 -0.000680099967881523 0.0
1.8469461020083537 -0.0005470149004996462 0.0
1.8663549238163983 -0.0004262027299568118 0.0
1.8857187894724354 -0.00031856384755735037 0.0
1.9050375771870613 -0.00022500078901269542 0.0
1.9243111937594573 -0.00014641769639299078 0.0
1.9435395711674126 -8.371985053848163e-05 0.0
1.9627226629312537 -3.7813278456178016e-05 0.0
1.9818604402513453 -9.604440232939934e-06 0.0

CELLS 100 300
2 0 2
2 2 3
2 3 4
2 4 5
2 5 6
2 6 7
2 7 8
2 8 9
2 9 10
2 10 11
2 11 12
2 12 13
2 13 14
2 14 15
2 15 16
2 16 17
2 17 18
2 18 19
2 19 20
2 20 21
2 21 22
2 22 23
2 23 24
2 24 25
2 25 26
2 26 27
2 27 28
2 28 29
2 29 30
2 30 31
2 31 32
2 32 33
2 33 34
2 34 35
2 35 36
2 36 37
2 37 38
2 38 39
2 39 40
2 40 41
2 41 42
2 42 43
2 43 44
2 44 45
2 45 46
2 46 47
2 47 48
2 48 49
2 49 50
2 50 51
2 51 52
2 52 53
2 53 54
2 54 55
2 55 56
2 56 57
2 57 58
2 58 59
2 59 60
2 60 61
2 61 62
2 62 63
2 63 64
2 64 65
2 65 66
2 66 67
2 67 68
2 68 69
2 69 70
2 70 71
2 71 72
2 72 73
2 73 74
2 74 75
2 75 76
2 76 77
2 77 78
2 78 79
2 79 80
2 80 81
2 81 82
2 82 83
2 83 84
2 84 85
2 85 86
2 86 87
2 87 88
2 88 89
2 89 90
2 90 91
2 91 92
2 92 93
2 93 94
2 94 95
2 95 96
2 96 97
2 97 98
2 98 99
2 99 100
2 100 1

CELL_TYPES 100
3
3
3
3
3
3
3
3
3
3
3
3
3
3
3
3
3
3
3
3
3
3
3
3
3
3
3
3
3
3
3
3
3
3
3
3
3
3
3
3
3
3
3
3
3
3
3
3
3
3
3
3
3
3
3
3
3
3
3
3
3
3
3
3
3
3
3
3
3
3
3
3
3
3
3
3
3
3
3
3
3
3
3
3
3
3
3
3
3
3
3
3
3
3
3
3
3
3
3
3

POINT_DATA 101
SCALARS MODE1_224.6674_Hz float 1
LOOKUP_TABLE default
0.009839986425673726
0.0
9.918014452078463e-05
0.009847731018820213
0.01923125756797109
0.028156174108291288
0.03662511581195344
0.04464086832166672
0.05220633260853886
0.05932455773784835
0.06599878065283044
0.07223246627141555
0.07802934662242618
0.08339345874820135
0.08832918136445082
0.09284127036458886
0.09693489330658514
0.1006156630592228
0.10388967082205085
0.10676351877379067
0.10924435264962298
0.11133989460088535
0.11305847675240305
0.1144090759440515
0.11540135022666352
0.11604567777848339
0.11635319901867203
0.11633586281913487
0.1160064778546191
0.11537877028068476
0.11446744908360029
0.11328828059331075
0.11185817376935578
0.11019527792462196
0.10831909448671911
0.10625060412339407
0.10401240994341089
0.10162889633141185
0.09912640100617437
0.09653339472872755
0.09388065825194737
0.09120143905313122
0.08853156063396189
0.08590944452592082
0.08337599020785583
0.0809742430539394
0.07874876974297221
0.07674466192433503
0.0750061125953192
0.07357456543914814
0.07248652832715803
0.07177125602346147
0.07144861109297575
0.07152745916654862
0.072004905593091
0.07286653094130174
0.07408757674419217
0.0756348444580956
0.07746896438320602
0.07954668951337497
0.08182294861189174
0.0842525068231606
0.08679118850547911
0.08939669236272023
0.09202906909452273
0.09465094384422962
0.0972275603450378
0.09972671012242354
0.1021185946218455
0.10437565403648802
0.10647238523386
0.10838516268797715
0.11009207034340475
0.1115727483279264
0.11280825586717572
0.11378095020178268
0.11447438043331067
0.11487319479053339
0.11496305964658883
0.11473058861955157
0.11416328018151457
0.11324946233889582
0.11197824310113592
0.11033946561003373
0.10832366694849219
0.10592203978109833
0.103126396098001
0.0999291324380022
0.0963231960575097
0.09230205159027571
0.08785964781016664
0.0829903841671253
0.07768907681659548
0.0719509239068135
0.06577146992904184
0.05914656897777699
0.052072346822797856
0.04454516179784075
0.03656156479196276
0.0281182596948488
0.019212071430569067

