# vtk DataFile Version 2.0
mesh vtk view
ASCII
DATASET UNSTRUCTURED_GRID
POINTS 101 double
-0.0039026603340772898 0.0 0.0
2.0 0.0 0.0
0.0199999999999621 -3.9558708496258857e-05 0.0
0.03609733966588281 -0.00015397817657324852 0.0
0.052513909921351354 -0.0003368752714348058 0.0
0.06924952673521169 -0.0005818731509962605 0.0
0.08630372336257099 -0.0008826081800192428 0.0
0.10367562617987289 -0.0012327392083558617 0.0
0.12136384263464119 -0.0016259589693184463 0.0
0.13936636127599847 -0.0020560073570589353 0.0
0.1576804638123812 -0.002516686343143303 0.0
0.17630264911937268 -0.0030018762943100274 0.0
0.19522856909377398 -0.003505553455771396 0.0
0.2144529762203467 -0.004021808367406198 0.0
0.23396968268551574 -0.004544864983844733 0.0
0.25377153083819287 -0.005069100273799676 0.0
0.2738503747621547 -0.005589064079071704 0.0
0.29419707268761597 -0.006099499019481698 0.0
0.3148014899321441 -0.006595360236558279 0.0
0.33565251202318513 -0.007071834776138612 0.0
0.3567380676168436 -0.007524360418122259 0.0
0.3780451607903082 -0.00794864377043495 0.0
0.3995599122489649 -0.00834067745379156 0.0
0.4212676089541872 -0.00869675621406616 0.0
0.4431527616441962 -0.009013491809949285 0.0
0.4651991696887467 -0.00928782653505609 0.0
0.4873899926889027 -0.009517045245698023 0.0
0.5097078282061693 -0.00969878577809337 0.0
0.5321347949809339 -0.009831047651811142 0.0
0.5546526209788414 -0.009912198969657778 0.0
0.5772427355855395 -0.009940981437961342 0.0
0.5998863652553982 -0.00991651344521513 0.0
0.6225646319084636 -0.009838291151240785 0.0
0.6452586533622146 -0.009706187553345156 0.0
0.6679496450807232 -0.009520449510301465 0.0
0.6906190225236756 -0.009281692719305078 0.0
0.7132485033814219 -0.008990894655261636 0.0
0.7358202089898384 -0.008649385495780823 0.0
0.7583167642302616 -0.00825883706899713 0.0
0.7807213952351165 -0.00782124987474109 0.0
0.8030180242389806 -0.007338938242567484 0.0
0.8251913609376935 -0.006814513702636058 0.0
0.847226989744558 -0.006250866657365816 0.0
0.8691114523626181 -0.005651146453077164 0.0
0.8908323251252371 -0.005018739961433103 0.0
0.9123782905935711 -0.004357248790330248 0.0
0.9337392029388565 -0.0036704652529160843 0.0
0.9549061466794588 -0.0029623472315686863 0.0
0.9758714883871591 -0.002236992080921499 0.0
0.9966289210238995 -0.0014986097203072966 0.0
1.017173500618929 -0.0007514950712952136 0.0
1.0375016750467139 -2.709572098430196e-13 0.0
1.0576113047177083 0.0007514950707569576 0.0
1.07750167504691 0.0014986097197765451 0.0
1.0971735006192502 0.0022369920804003237 0.0
1.116628921024319 0.002962347231059031 0.0
1.1358714883876724 0.003670465252419811 0.0
1.1549061466800594 0.004357248789849027 0.0
1.1737392029395377 0.0050187399609684345 0.0
1.1923782905943257 0.005651146452630379 0.0
1.2108323251260553 0.006250866656938021 0.0
1.2291114523634932 0.006814513702228243 0.0
1.247226989745481 0.007338938242180406 0.0
1.265191360938655 0.0078212498743753 0.0
1.2830180242399725 0.008258837068653034 0.0
1.3007213952361303 0.008649385495458618 0.0
1.318316764231289 0.00899089465496133 0.0
1.335820208990869 0.009281692719026503 0.0
1.3532485033824488 0.009520449510044292 0.0
1.3706190225246908 0.009706187553108906 0.0
1.3879496450817213 0.009838291151024851 0.0
1.4052586533631877 0.009916513445018786 0.0
1.4225646319094074 0.00994098143778376 0.0
1.4398863652563076 0.009912198969498057 0.0
1.457242735586412 0.009831047651668326 0.0
1.4746526209796733 0.009698785777966486 0.0
1.492134794981725 0.009517045245586052 0.0
1.5097078282069163 0.009287826534957981 0.0
1.5273899926896048 0.00901349180986398 0.0
1.5451991696894014 0.00869675621399261 0.0
1.563152761644805 0.008340677453728731 0.0
1.58126760895475 0.007948643770381843 0.0
1.599559912249483 0.007524360418077902 0.0
1.6180451607907806 0.0070718347761021 0.0
1.636738067617272 0.006595360236528668 0.0
1.6556525120235697 0.006099499019458166 0.0
1.6748014899324883 0.005589064079053454 0.0
1.6941970726879183 0.005069100273785959 0.0
1.7138503747624145 0.004544864983834846 0.0
1.7337715308384143 0.004021808367399835 0.0
1.7539696826857039 0.003505553455768269 0.0
1.7744529762205097 0.00300187629430958 0.0
1.7952285690939218 0.002516686343144874 0.0
1.8163026491195071 0.0020560073570619272 0.0
1.8376804638125033 0.0016259589693222974 0.0
1.8593663612761087 0.0012327392083600012 0.0
1.8813638426347419 0.0008826081800231234 0.0
1.9036756261799626 0.0005818731509995463 0.0
1.9263037233626452 0.0003368752714372942 0.0
1.9492495267352694 0.00015397817657481893 0.0
1.972513909921397 3.9558708496798234e-05 0.0

CELLS 100 300
2 0 2
2 2 3
2 3 4
2 4 5
2 5 6
2 6 7
2 7 8
2 8 9
2 9 10
2 10 11
2 11 12
2 12 13
2 13 14
2 14 15
2 15 16
2 16 17
2 17 18
2 18 19
2 19 20
2 20 21
2 21 22
2 22 23
2 23 24
2 24 25
2 25 26
2 26 27
2 27 28
2 28 29
2 29 30
2 30 31
2 31 32
2 32 33
2 33 34
2 34 35
2 35 36
2 36 37
2 37 38
2 38 39
2 39 40
2 40 41
2 41 42
2 42 43
2 43 44
2 44 45
2 45 46
2 46 47
2 47 48
2 48 49
2 49 50
2 50 51
2 51 52
2 52 53
2 53 54
2 54 55
2 55 56
2 56 57
2 57 58
2 58 59
2 59 60
2 60 61
2 61 62
2 62 63
2 63 64
2 64 65
2 65 66
2 66 67
2 67 68
2 68 69
2 69 70
2 70 71
2 71 72
2 72 73
2 73 74
2 74 75
2 75 76
2 76 77
2 77 78
2 78 79
2 79 80
2 80 81
2 81 82
2 82 83
2 83 84
2 84 85
2 85 86
2 86 87
2 87 88
2 88 89
2 89 90
2 90 91
2 91 92
2 92 93
2 93 94
2 94 95
2 95 96
2 96 97
2 97 98
2 98 99
2 99 100
2 100 1

CELL_TYPES 100
3
3
3
3
3
3
3
3
3
3
3
3
3
3
3
3
3
3
3
3
3
3
3
3
3
3
3
3
3
3
3
3
3
3
3
3
3
3
3
3
3
3
3
3
3
3
3
3
3
3
3
3
3
3
3
3
3
3
3
3
3
3
3
3
3
3
3
3
3
3
3
3
3
3
3
3
3
3
3
3
3
3
3
3
3
3
3
3
3
3
3
3
3
3
3
3
3
3
3
3

POINT_DATA 101
SCALARS MODE2_619.3044_Hz float 1
LOOKUP_TABLE default
0.02667832639425423
0.0
0.00027042069938373756
0.026699083007919962
0.051226201980524154
0.07359708701882048
0.09382103666866715
0.11191006164382647
0.12787948854935227
0.14174868299595036
0.15354173192877954
0.16328807272750234
0.17102307352289706
0.17678857506283804
0.1806334097950444
0.1826139209232872
0.18279451462093835
0.18124829451165347
0.1780578524601111
0.17331632962095828
0.1671289269340401
0.1596151531053225
0.15091228306524565
0.14118081837980806
0.13061329096678734
0.11944868054755584
0.10799616053171027
0.09667354918822504
0.08606517552256139
0.07699038186628254
0.07052139906996478
0.0677930767341908
0.069501413157734
0.07546310527553234
0.0847864704938791
0.09641173806822753
0.10945160536274122
0.12325377272168135
0.13735162014845098
0.15140445605845224
0.16515386844506685
0.17839589591397076
0.19096401355270906
0.2027188105813003
0.21354169713990498
0.22333103645466829
0.23199975169910012
0.23947384093246493
0.24569145754367722
0.2506023455246499
0.25416749795121163
0.2563589555978672
0.25715969339290257
0.2565635628299336
0.2545752729356508
0.25121040379507276
0.24649545700115738
0.24046795850898092
0.23317664320751727
0.224681769745335
0.21505564287344375
0.2043834655890343
0.19276471631338998
0.18031536755705324
0.16717146778713352
0.15349495947738576
0.13948320450631146
0.1253846671393985
0.11152460413669278
0.09834571135528687
0.08646546035877668
0.07673032312149616
0.07018092003459671
0.06776358520223974
0.0697975269831806
0.07570959356788932
0.08439972464774075
0.09476895026186898
0.10595814165819112
0.11735092830459416
0.1285076113813822
0.13910468075092816
0.14889365925404818
0.15767548617693478
0.16528493749394357
0.17158112105142395
0.17644159358226474
0.17975864487127408
0.18143689083568149
0.18139166359648984
0.17954788762881996
0.17583924915808627
0.17020753655747473
0.16260207255394285
0.15297918586723497
0.1413016869830855
0.12753832390979083
0.11166320132919325
0.09365515225078395
0.07349705764895377
0.05117512820322159

