# vtk DataFile Version 2.0
mesh vtk view
ASCII
DATASET UNSTRUCTURED_GRID
POINTS 101 double
0.004612234940273163 0.0 0.0
2.0 0.0 0.0
0.0199999999999621 4.675120095012412e-05 0.0
0.04461223494015566 0.00018197420867747558 0.0
0.06884719736542656 0.00039812532078658885 0.0
0.09270510476713523 0.0006876682693592173 0.0
0.11618650875288618 0.0010430823945681966 0.0
0.1392924417868908 0.00145687360987511 0.0
0.16202454961299562 0.001921587872830892 0.0
0.18438520940041528 0.0024298268765241974 0.0
0.20637763367553252 0.0029742656782602685 0.0
0.2280059601308395 0.0035476719841845794 0.0
0.2492753274337528 0.004142926811366197 0.0
0.2701919371931868 0.0047530462523891455 0.0
0.290763102279708 0.005371204071816505 0.0
0.310997281735512 0.005990754869035983 0.0
0.33090410255252056 0.006605257547993836 0.0
0.35049436864048433 0.007208498841205646 0.0
0.3697800573513693 0.007794516643205242 0.0
0.38877430397092044 0.008357622917254727 0.0
0.4074913746328333 0.008892425948689947 0.0
0.42594662815497497 0.009393851728695855 0.0
0.44415646734007147 0.009857164263571846 0.0
0.4621382803246815 0.010277984616623648 0.0
0.4799103725999978 0.010652308502667341 0.0
0.49749189036540187 0.010976522268702658 0.0
0.5149027359105446 0.011247417108552213 0.0
0.5321634757536474 0.011462201374110352 0.0
0.5492952422924346 0.011618510861231356 0.0
0.5663196297493259 0.011714416964141015 0.0
0.5832585852140099 0.011748432608499773 0.0
0.6001342956040493 0.011719515889799706 0.0
0.616969071377572 0.011627071360557295 0.0
0.6337852278411934 0.011470948926680645 0.0
0.6506049649010105 0.01125144033035628 0.0
0.6674502461046667 0.01096927321372419 0.0
0.6843426778181116 0.01062560277440012 0.0
0.7013033893716739 0.01022200104046825 0.0
0.7183529149965009 0.009760443808814795 0.0
0.7355110783542725 0.009243295306512201 0.0
0.7527968804404876 0.00867329065030703 0.0
0.7702283916146083 0.008053516194024436 0.0
0.7878226484790956 0.007387387867795968 0.0
0.805595556293988 0.006678627626363924 0.0
0.8235617975744022 0.005931238136239123 0.0
0.8417347474753346 0.005149475843117568 0.0
0.8601263965216881 0.0043378225716281015 0.0
0.8787472811917577 0.0035009558191266307 0.0
0.8976064228098029 0.002643717913816318 0.0
0.9167112751480733 0.0017710842149086241 0.0
0.936067681081093 0.0008881305388034346 0.0
0.9556798385754491 3.2022215708720513e-13 0.0
0.9755502762370682 -0.0008881305381673139 0.0
0.9956798385754002 -0.0017710842142813724 0.0
1.0160676810809317 -0.002643717913200384 0.0
1.036711275147782 -0.003500955818524311 0.0
1.0576064228093895 -0.004337822571041597 0.0
1.0787472811912295 -0.005149475842548852 0.0
1.1001263965210524 -0.005931238135689971 0.0
1.1217347474746007 -0.006678627625835905 0.0
1.1435617975735788 -0.007387387867290393 0.0
1.1655955562930864 -0.008053516193542472 0.0
1.1878226484781254 -0.008673290649849574 0.0
1.2102283916135788 -0.009243295306079905 0.0
1.23279688043941 -0.009760443808408134 0.0
1.2555110783531576 -0.01022200104008746 0.0
1.278352914995358 -0.010625602774045213 0.0
1.301303389370513 -0.010969273213394963 0.0
1.3243426778169436 -0.01125144033005235 0.0
1.3474502461035003 -0.011470948926401438 0.0
1.370604964899853 -0.011627071360302103 0.0
1.3937852278400515 -0.01171951588956766 0.0
1.4169690713764531 -0.011748432608289904 0.0
1.4401342956029592 -0.011714416963952255 0.0
1.4632585852129516 -0.011618510861062572 0.0
1.4863196297483017 -0.011462201373960397 0.0
1.5092952422914474 -0.011247417108419883 0.0
1.5321634757527 -0.01097652226858671 0.0
1.5549027359096388 -0.010652308502566526 0.0
1.5774918903645379 -0.010277984616536725 0.0
1.5999103725991768 -0.009857164263497595 0.0
1.6221382803239028 -0.009393851728633093 0.0
1.644156467339334 -0.008892425948637525 0.0
1.6659466281542774 -0.008357622917211576 0.0
1.6874913746321762 -0.0077945166431702476 0.0
1.7087743039703036 -0.007208498841177836 0.0
1.729780057350788 -0.006605257547972267 0.0
1.7504943686399388 -0.005990754869019772 0.0
1.7709041025520136 -0.00537120407180482 0.0
1.7909972817350384 -0.004753046252381626 0.0
1.8107631022792665 -0.004142926811362501 0.0
1.830191937192791 -0.0035476719841840503 0.0
1.84927532743342 -0.002974265678262125 0.0
1.8680059601305707 -0.0024298268765277336 0.0
1.8863776336753275 -0.0019215878728354432 0.0
1.904385209400271 -0.001456873609880002 0.0
1.9220245496129107 -0.0010430823945727827 0.0
1.9392924417868567 -0.0006876682693631004 0.0
1.956186508752893 -0.00039812532078952964 0.0
1.9727051047671778 -0.00018197420867933155 0.0
1.988847197365506 -4.675120095076157e-05 0.0

CELLS 100 300
2 0 2
2 2 3
2 3 4
2 4 5
2 5 6
2 6 7
2 7 8
2 8 9
2 9 10
2 10 11
2 11 12
2 12 13
2 13 14
2 14 15
2 15 16
2 16 17
2 17 18
2 18 19
2 19 20
2 20 21
2 21 22
2 22 23
2 23 24
2 24 25
2 25 26
2 26 27
2 27 28
2 28 29
2 29 30
2 30 31
2 31 32
2 32 33
2 33 34
2 34 35
2 35 36
2 36 37
2 37 38
2 38 39
2 39 40
2 40 41
2 41 42
2 42 43
2 43 44
2 44 45
2 45 46
2 46 47
2 47 48
2 48 49
2 49 50
2 50 51
2 51 52
2 52 53
2 53 54
2 54 55
2 55 56
2 56 57
2 57 58
2 58 59
2 59 60
2 60 61
2 61 62
2 62 63
2 63 64
2 64 65
2 65 66
2 66 67
2 67 68
2 68 69
2 69 70
2 70 71
2 71 72
2 72 73
2 73 74
2 74 75
2 75 76
2 76 77
2 77 78
2 78 79
2 79 80
2 80 81
2 81 82
2 82 83
2 83 84
2 84 85
2 85 86
2 86 87
2 87 88
2 88 89
2 89 90
2 90 91
2 91 92
2 92 93
2 93 94
2 94 95
2 95 96
2 96 97
2 97 98
2 98 99
2 99 100
2 100 1

CELL_TYPES 100
3
3
3
3
3
3
3
3
3
3
3
3
3
3
3
3
3
3
3
3
3
3
3
3
3
3
3
3
3
3
3
3
3
3
3
3
3
3
3
3
3
3
3
3
3
3
3
3
3
3
3
3
3
3
3
3
3
3
3
3
3
3
3
3
3
3
3
3
3
3
3
3
3
3
3
3
3
3
3
3
3
3
3
3
3
3
3
3
3
3
3
3
3
3
3
3
3
3
3
3

POINT_DATA 101
SCALARS MODE2_619.3044_Hz float 1
LOOKUP_TABLE default
0.02667832639425423
0.0
0.00027042069938373756
0.026699083007919962
0.051226201980524154
0.07359708701882048
0.09382103666866715
0.11191006164382647
0.12787948854935227
0.14174868299595036
0.15354173192877954
0.16328807272750234
0.17102307352289706
0.17678857506283804
0.1806334097950444
0.1826139209232872
0.18279451462093835
0.18124829451165347
0.1780578524601111
0.17331632962095828
0.1671289269340401
0.1596151531053225
0.15091228306524565
0.14118081837980806
0.13061329096678734
0.11944868054755584
0.10799616053171027
0.09667354918822504
0.08606517552256139
0.07699038186628254
0.07052139906996478
0.0677930767341908
0.069501413157734
0.07546310527553234
0.0847864704938791
0.09641173806822753
0.10945160536274122
0.12325377272168135
0.13735162014845098
0.15140445605845224
0.16515386844506685
0.17839589591397076
0.19096401355270906
0.2027188105813003
0.21354169713990498
0.22333103645466829
0.23199975169910012
0.23947384093246493
0.24569145754367722
0.2506023455246499
0.25416749795121163
0.2563589555978672
0.25715969339290257
0.2565635628299336
0.2545752729356508
0.25121040379507276
0.24649545700115738
0.24046795850898092
0.23317664320751727
0.224681769745335
0.21505564287344375
0.2043834655890343
0.19276471631338998
0.18031536755705324
0.16717146778713352
0.15349495947738576
0.13948320450631146
0.1253846671393985
0.11152460413669278
0.09834571135528687
0.08646546035877668
0.07673032312149616
0.07018092003459671
0.06776358520223974
0.0697975269831806
0.07570959356788932
0.08439972464774075
0.09476895026186898
0.10595814165819112
0.11735092830459416
0.1285076113813822
0.13910468075092816
0.14889365925404818
0.15767548617693478
0.16528493749394357
0.17158112105142395
0.17644159358226474
0.17975864487127408
0.18143689083568149
0.18139166359648984
0.17954788762881996
0.17583924915808627
0.17020753655747473
0.16260207255394285
0.15297918586723497
0.1413016869830855
0.12753832390979083
0.11166320132919325
0.09365515225078395
0.07349705764895377
0.05117512820322159

