# vtk DataFile Version 2.0
mesh vtk view
ASCII
DATASET UNSTRUCTURED_GRID
POINTS 101 double
-0.008160107971252516 0.0 0.0
2.0 0.0 0.0
0.0199999999999621 -8.271366321945034e-05 0.0
0.03183989202874638 -0.00032195436919861054 0.0
0.04434726619931375 -0.0007043755675455031 0.0
0.05752173771924991 -0.0012166438611739994 0.0
0.07136233066741338 -0.0018454534673129626 0.0
0.08586721837636394 -0.0025775456174713476 0.0
0.10103348914546398 -0.0033997323903931153 0.0
0.11685693721379008 -0.004298924473850501 0.0
0.13333187888080555 -0.0052621623538450886 0.0
0.15045099361363926 -0.006276650433557331 0.0
0.16820518992378458 -0.007329793589340193 0.0
0.18658349573392666 -0.00840923567730387 0.0
0.20557297288841964 -0.009502899511675352 0.0
0.22515865538953328 -0.010599027845217504 0.0
0.24532351086697174 -0.011686224892604475 0.0
0.26604842471118184 -0.012753497949825368 0.0
0.28731220622253145 -0.013790298676440039 0.0
0.3090916160493175 -0.01478656362283528 0.0
0.3313614141088488 -0.01573275360152836 0.0
0.35409442710797484 -0.016619891520000353 0.0
0.3772616347034116 -0.017439598312473263 0.0
0.40083227326894 -0.018184126629411063 0.0
0.4247739561662954 -0.0188463919662576 0.0
0.44905280935041914 -0.019420000936935463 0.0
0.4736336210780818 -0.01989927642282314 0.0
0.4984800044324303 -0.020279279354195233 0.0
0.5235545713251835 -0.02055582690833239 0.0
0.5488191165935992 -0.020725506936557173 0.0
0.5742348107713043 -0.020785688461191897 0.0
0.5997624000810725 -0.02073452811272255 0.0
0.6253624121739094 -0.020570972407139825 0.0
0.6509953661227251 -0.020294755793358057 0.0
0.6766219851705796 -0.019906394430630338 0.0
0.70220341073318 -0.019407175685819712 0.0
0.7277014161630769 -0.018799143370092513 0.0
0.7530786187989206 -0.01808507876390536 0.0
0.778298688847142 -0.017268477507903092 0.0
0.8033265536755384 -0.016353522465367733 0.0
0.828128596138227 -0.015345052689004742 0.0
0.8526728455992362 -0.014248528650966305 0.0
0.8769291603772892 -0.01306999391994671 0.0
0.9008694003969331 -0.011816033492797707 0.0
0.9244675889006545 -0.010493729010269216 0.0
0.9477000621526893 -0.009110611107054155 0.0
0.9705456061474407 -0.007674609165188177 0.0
0.9929855794233093 -0.006193998756916345 0.0
1.0150040211758373 -0.004677347078290407 0.0
1.0365877439618127 -0.003133456687915257 0.0
1.057726410387847 -0.0015713078763445376 0.0
1.0784125932823463 -5.665468933081319e-13 0.0
1.0986418189580283 0.0015713078752190932 0.0
1.118412593282665 0.003133456686805504 0.0
1.1377264103884097 0.004677347077200678 0.0
1.1565877439625873 0.0061939987558507015 0.0
1.1750040211768138 0.007674609164150515 0.0
1.1929855794244744 0.009110611106047967 0.0
1.2105456061487805 0.010493729009297638 0.0
1.2277000621541883 0.01181603349186352 0.0
1.2444675889022936 0.013069993919052229 0.0
1.2608694003986967 0.0142485286501136 0.0
1.2769291603791588 0.015345052688195396 0.0
1.2926728456011929 0.016353522464602904 0.0
1.3081285961402538 0.01726847750718362 0.0
1.3233265536776166 0.018085078763231656 0.0
1.3382986888492543 0.0187991433694646 0.0
1.3530786188010473 0.019407175685237237 0.0
1.3677014161652017 0.01990639443009261 0.0
1.382203410735286 0.020294755792864078 0.0
1.3966219851726551 0.02057097240668833 0.0
1.4109953661247556 0.02073452811231201 0.0
1.4253624121758846 0.020785688460820594 0.0
1.4397624000829818 0.020725506936223215 0.0
1.4542348107731422 0.020555826908033772 0.0
1.4688191165953592 0.020279279353929928 0.0
1.4835545713268636 0.01989927642258902 0.0
1.4984800044340245 0.019420000936730325 0.0
1.5136336210795878 0.01884639196607923 0.0
1.5290528093518332 0.018184126629257277 0.0
1.544773956167619 0.017439598312341893 0.0
1.5608322732701734 0.016619891519889313 0.0
1.5772616347045574 0.015732753601435615 0.0
1.5940944271090325 0.014786563622758937 0.0
1.6113614141098198 0.013790298676378127 0.0
1.6290916160502027 0.012753497949776168 0.0
1.6473122062233385 0.011686224892566315 0.0
1.666048424711908 0.010599027845188824 0.0
1.685323510867615 0.009502899511654679 0.0
1.7051586553901021 0.008409235677290567 0.0
1.7255729728889226 0.007329793589333654 0.0
1.746583495734369 0.006276650433556395 0.0
1.7682051899241726 0.005262162353848373 0.0
1.7904509936139754 0.004298924473856758 0.0
1.813331878881091 0.003399732390401168 0.0
1.8368569372140273 0.0025775456174800026 0.0
1.8610334891456575 0.0018454534673210765 0.0
1.8858672183765155 0.0012166438611808696 0.0
1.9113623306675211 0.000704375567550706 0.0
1.9375217377193152 0.00032195436920189416 0.0
1.9643472661993426 8.271366322057813e-05 0.0

CELLS 100 300
2 0 2
2 2 3
2 3 4
2 4 5
2 5 6
2 6 7
2 7 8
2 8 9
2 9 10
2 10 11
2 11 12
2 12 13
2 13 14
2 14 15
2 15 16
2 16 17
2 17 18
2 18 19
2 19 20
2 20 21
2 21 22
2 22 23
2 23 24
2 24 25
2 25 26
2 26 27
2 27 28
2 28 29
2 29 30
2 30 31
2 31 32
2 32 33
2 33 34
2 34 35
2 35 36
2 36 37
2 37 38
2 38 39
2 39 40
2 40 41
2 41 42
2 42 43
2 43 44
2 44 45
2 45 46
2 46 47
2 47 48
2 48 49
2 49 50
2 50 51
2 51 52
2 52 53
2 53 54
2 54 55
2 55 56
2 56 57
2 57 58
2 58 59
2 59 60
2 60 61
2 61 62
2 62 63
2 63 64
2 64 65
2 65 66
2 66 67
2 67 68
2 68 69
2 69 70
2 70 71
2 71 72
2 72 73
2 73 74
2 74 75
2 75 76
2 76 77
2 77 78
2 78 79
2 79 80
2 80 81
2 81 82
2 82 83
2 83 84
2 84 85
2 85 86
2 86 87
2 87 88
2 88 89
2 89 90
2 90 91
2 91 92
2 92 93
2 93 94
2 94 95
2 95 96
2 96 97
2 97 98
2 98 99
2 99 100
2 100 1

CELL_TYPES 100
3
3
3
3
3
3
3
3
3
3
3
3
3
3
3
3
3
3
3
3
3
3
3
3
3
3
3
3
3
3
3
3
3
3
3
3
3
3
3
3
3
3
3
3
3
3
3
3
3
3
3
3
3
3
3
3
3
3
3
3
3
3
3
3
3
3
3
3
3
3
3
3
3
3
3
3
3
3
3
3
3
3
3
3
3
3
3
3
3
3
3
3
3
3
3
3
3
3
3
3

POINT_DATA 101
SCALARS MODE2_619.3044_Hz float 1
LOOKUP_TABLE default
0.02667832639425423
0.0
0.00027042069938373756
0.026699083007919962
0.051226201980524154
0.07359708701882048
0.09382103666866715
0.11191006164382647
0.12787948854935227
0.14174868299595036
0.15354173192877954
0.16328807272750234
0.17102307352289706
0.17678857506283804
0.1806334097950444
0.1826139209232872
0.18279451462093835
0.18124829451165347
0.1780578524601111
0.17331632962095828
0.1671289269340401
0.1596151531053225
0.15091228306524565
0.14118081837980806
0.13061329096678734
0.11944868054755584
0.10799616053171027
0.09667354918822504
0.08606517552256139
0.07699038186628254
0.07052139906996478
0.0677930767341908
0.069501413157734
0.07546310527553234
0.0847864704938791
0.09641173806822753
0.10945160536274122
0.12325377272168135
0.13735162014845098
0.15140445605845224
0.16515386844506685
0.17839589591397076
0.19096401355270906
0.2027188105813003
0.21354169713990498
0.22333103645466829
0.23199975169910012
0.23947384093246493
0.24569145754367722
0.2506023455246499
0.25416749795121163
0.2563589555978672
0.25715969339290257
0.2565635628299336
0.2545752729356508
0.25121040379507276
0.24649545700115738
0.24046795850898092
0.23317664320751727
0.224681769745335
0.21505564287344375
0.2043834655890343
0.19276471631338998
0.18031536755705324
0.16717146778713352
0.15349495947738576
0.13948320450631146
0.1253846671393985
0.11152460413669278
0.09834571135528687
0.08646546035877668
0.07673032312149616
0.07018092003459671
0.06776358520223974
0.0697975269831806
0.07570959356788932
0.08439972464774075
0.09476895026186898
0.10595814165819112
0.11735092830459416
0.1285076113813822
0.13910468075092816
0.14889365925404818
0.15767548617693478
0.16528493749394357
0.17158112105142395
0.17644159358226474
0.17975864487127408
0.18143689083568149
0.18139166359648984
0.17954788762881996
0.17583924915808627
0.17020753655747473
0.16260207255394285
0.15297918586723497
0.1413016869830855
0.12753832390979083
0.11166320132919325
0.09365515225078395
0.07349705764895377
0.05117512820322159

