# vtk DataFile Version 2.0
mesh vtk view
ASCII
DATASET UNSTRUCTURED_GRID
POINTS 101 double
-0.0010649923799601476 0.0 0.0
2.0 0.0 0.0
0.0199999999999621 1.0734374377020523e-05 0.0
0.04106499237979341 4.2261899447379973e-05 0.0
0.06207931557481751 9.356924471174539e-05 0.0
0.0830429762170211 0.0001636433077201971 0.0
0.10395599130444808 0.0002514714700532559 0.0
0.12481839302493272 0.0003560419472425492 0.0
0.14563023332634953 0.00047634422756278255 0.0
0.16639158823352 0.0006113695946306964 0.0
0.18710256191205904 0.0007601117287533121 0.0
0.207763290479538 0.000921567381976679 0.0
0.2283739455644705 0.0010947371217982966 0.0
0.24893473761382393 0.001278626138522 0.0
0.26944591894990405 0.0014722451112531344 0.0
0.28990778657771066 0.0016746111275554418 0.0
0.3103206847439737 0.0018847486518177308 0.0
0.3306850072493636 0.002101690537411034 0.0
0.3510011995156428 0.002324479077754377 0.0
0.37126976040971094 0.002552167091448599 0.0
0.3914912438267653 0.0027838190366851426 0.0
0.4116662600350749 0.0030185121501895046 0.0
0.43179547678516306 0.003255337606017449 0.0
0.45187962018642935 0.0034934016895857784 0.0
0.4719194753545683 0.003731826982389474 0.0
0.4919158868334161 0.003969753552932542 0.0
0.5118697587951551 0.004206340149481531 0.0
0.5317820550231057 0.004440765390338228 0.0
0.5516537986816307 0.004672228947421477 0.0
0.5714860718779748 0.00489995271904764 0.0
0.5912800150211631 0.005123181987904432 0.0
0.6110368259833714 0.005341186560324273 0.0
0.63075775906948 0.005553261883080228 0.0
0.6504441238008032 0.005758730134050398 0.0
0.6700972835192744 0.005956941283224942 0.0
0.6897186538186381 0.006147274120663663 0.0
0.7093097008094736 0.006329137248151194 0.0
0.7288719392251348 0.006501970031441097 0.0
0.7484069303759426 0.006665243510129268 0.0
0.7679162799592114 0.0068184612623512055 0.0
0.787401635732922 0.006961160221655927 0.0
0.8068646850610769 0.007092911443572382 0.0
0.8263071523389852 0.007213320819551081 0.0
0.84573079630692 0.007322029736134338 0.0
0.8651374072607789 0.0074187156773829884 0.0
0.8845288041685461 0.007503092768764881 0.0
0.9039068317015195 0.007574912260891326 0.0
0.9232733571894023 0.007633962951670815 0.0
0.9426302675084915 0.00768007154563527 0.0
0.9619794659123054 0.007713102949381914 0.0
0.9813228688140985 0.007732960502263515 0.0
1.0006624025308037 0.007739586141651066 0.0
1.019999999997953 0.007732960502284975 0.0
1.0393375974651191 0.007713102949424552 0.0
1.0586771311819003 0.007680071545698672 0.0
1.0780205340837836 0.007633962951754432 0.0
1.0973697324876812 0.007574912260994468 0.0
1.1167266428068474 0.007503092768886738 0.0
1.136093168294802 0.007418715677522633 0.0
1.1554711958278416 0.007322029736290737 0.0
1.174862592735668 0.007213320819723108 0.0
1.1942692036895823 0.007092911443758803 0.0
1.2136928476575686 0.006961160221855448 0.0
1.2331353149355238 0.006818461262562475 0.0
1.252598364263724 0.0066652435103508574 0.0
1.272083720037477 0.006501970031671557 0.0
1.2915930696207862 0.0063291372483890475 0.0
1.3111280607716318 0.006147274120907403 0.0
1.330690299187331 0.005956941283473035 0.0
1.3502813461782042 0.005758730134301333 0.0
1.3699027164776065 0.005553261883332523 0.0
1.3895558761961162 0.005341186560576474 0.0
1.4092422409274805 0.0051231819881551064 0.0
1.428963174013632 0.004899952719295428 0.0
1.448719984975887 0.004672228947665083 0.0
1.468513928119124 0.004440765390576458 0.0
1.488346201315522 0.004206340149713245 0.0
1.5082179449741044 0.003969753553156687 0.0
1.528130241202117 0.0037318269826050955 0.0
1.548084113163921 0.003493401689792028 0.0
1.5680805246428398 0.0032553376062135534 0.0
1.5881203798110546 0.00301851215037482 0.0
1.608204523212402 0.002783819036859122 0.0
1.6283337399625752 0.00255216709161082 0.0
1.6485087561709761 0.002324479077904491 0.0
1.6687302395881265 0.0021016905375488364 0.0
1.6889988004822978 0.0018847486519431257 0.0
1.7093149927486833 0.0016746111276684417 0.0
1.7296793152541847 0.001472245111353852 0.0
1.7500922134205652 0.0012786261386107706 0.0
1.7705540810484923 0.0010947371218755354 0.0
1.7910652623846837 0.0009215673820427883 0.0
1.8116260544341414 0.0007601117288087607 0.0
1.8322367095191816 0.0006113695946760749 0.0
1.8528974380867735 0.00047634422759878944 0.0
1.8736084117654304 0.0003560419472699797 0.0
1.894369766672725 0.00025147147007301243 0.0
1.9151816069742775 0.00016364330773334257 0.0
1.9360440086949104 9.356924471947943e-05 0.0
1.956957023782492 4.226189945102247e-05 0.0
1.9779206844248545 1.0734374377991686e-05 0.0

CELLS 100 300
2 0 2
2 2 3
2 3 4
2 4 5
2 5 6
2 6 7
2 7 8
2 8 9
2 9 10
2 10 11
2 11 12
2 12 13
2 13 14
2 14 15
2 15 16
2 16 17
2 17 18
2 18 19
2 19 20
2 20 21
2 21 22
2 22 23
2 23 24
2 24 25
2 25 26
2 26 27
2 27 28
2 28 29
2 29 30
2 30 31
2 31 32
2 32 33
2 33 34
2 34 35
2 35 36
2 36 37
2 37 38
2 38 39
2 39 40
2 40 41
2 41 42
2 42 43
2 43 44
2 44 45
2 45 46
2 46 47
2 47 48
2 48 49
2 49 50
2 50 51
2 51 52
2 52 53
2 53 54
2 54 55
2 55 56
2 56 57
2 57 58
2 58 59
2 59 60
2 60 61
2 61 62
2 62 63
2 63 64
2 64 65
2 65 66
2 66 67
2 67 68
2 68 69
2 69 70
2 70 71
2 71 72
2 72 73
2 73 74
2 74 75
2 75 76
2 76 77
2 77 78
2 78 79
2 79 80
2 80 81
2 81 82
2 82 83
2 83 84
2 84 85
2 85 86
2 86 87
2 87 88
2 88 89
2 89 90
2 90 91
2 91 92
2 92 93
2 93 94
2 94 95
2 95 96
2 96 97
2 97 98
2 98 99
2 99 100
2 100 1

CELL_TYPES 100
3
3
3
3
3
3
3
3
3
3
3
3
3
3
3
3
3
3
3
3
3
3
3
3
3
3
3
3
3
3
3
3
3
3
3
3
3
3
3
3
3
3
3
3
3
3
3
3
3
3
3
3
3
3
3
3
3
3
3
3
3
3
3
3
3
3
3
3
3
3
3
3
3
3
3
3
3
3
3
3
3
3
3
3
3
3
3
3
3
3
3
3
3
3
3
3
3
3
3
3

POINT_DATA 101
SCALARS MODE1_224.6674_Hz float 1
LOOKUP_TABLE default
0.009839986425673726
0.0
9.918014452078463e-05
0.009847731018820213
0.01923125756797109
0.028156174108291288
0.03662511581195344
0.04464086832166672
0.05220633260853886
0.05932455773784835
0.06599878065283044
0.07223246627141555
0.07802934662242618
0.08339345874820135
0.08832918136445082
0.09284127036458886
0.09693489330658514
0.1006156630592228
0.10388967082205085
0.10676351877379067
0.10924435264962298
0.11133989460088535
0.11305847675240305
0.1144090759440515
0.11540135022666352
0.11604567777848339
0.11635319901867203
0.11633586281913487
0.1160064778546191
0.11537877028068476
0.11446744908360029
0.11328828059331075
0.11185817376935578
0.11019527792462196
0.10831909448671911
0.10625060412339407
0.10401240994341089
0.10162889633141185
0.09912640100617437
0.09653339472872755
0.09388065825194737
0.09120143905313122
0.08853156063396189
0.08590944452592082
0.08337599020785583
0.0809742430539394
0.07874876974297221
0.07674466192433503
0.0750061125953192
0.07357456543914814
0.07248652832715803
0.07177125602346147
0.07144861109297575
0.07152745916654862
0.072004905593091
0.07286653094130174
0.07408757674419217
0.0756348444580956
0.07746896438320602
0.07954668951337497
0.08182294861189174
0.0842525068231606
0.08679118850547911
0.08939669236272023
0.09202906909452273
0.09465094384422962
0.0972275603450378
0.09972671012242354
0.1021185946218455
0.10437565403648802
0.10647238523386
0.10838516268797715
0.11009207034340475
0.1115727483279264
0.11280825586717572
0.11378095020178268
0.11447438043331067
0.11487319479053339
0.11496305964658883
0.11473058861955157
0.11416328018151457
0.11324946233889582
0.11197824310113592
0.11033946561003373
0.10832366694849219
0.10592203978109833
0.103126396098001
0.0999291324380022
0.0963231960575097
0.09230205159027571
0.08785964781016664
0.0829903841671253
0.07768907681659548
0.0719509239068135
0.06577146992904184
0.05914656897777699
0.052072346822797856
0.04454516179784075
0.03656156479196276
0.0281182596948488
0.019212071430569067

