# vtk DataFile Version 2.0
mesh vtk view
ASCII
DATASET UNSTRUCTURED_GRID
POINTS 101 double
-0.004612234940273161 0.0 0.0
2.0 0.0 0.0
0.0199999999999621 -4.675120095012411e-05 0.0
0.035387765059693405 -0.00018197420867747553 0.0
0.05115280263434508 -0.00039812532078658874 0.0
0.06729489523255139 -0.0006876682693592171 0.0
0.08381349124671138 -0.0010430823945681961 0.0
0.1007075582126214 -0.0014568736098751094 0.0
0.11797545038644498 -0.0019215878728308913 0.0
0.13561479059896375 -0.0024298268765241965 0.0
0.1536223663237853 -0.0029742656782602676 0.0
0.1719940398684171 -0.003547671984184578 0.0
0.1907246725654424 -0.004142926811366196 0.0
0.20980806280594336 -0.004753046252389145 0.0
0.22923689771933306 -0.005371204071816503 0.0
0.24900271826341627 -0.00599075486903598 0.0
0.2690958974462908 -0.006605257547993834 0.0
0.2895056313582103 -0.007208498841205644 0.0
0.31021994264720865 -0.0077945166432052395 0.0
0.33122569602754054 -0.008357622917254724 0.0
0.35250862536551114 -0.008892425948689943 0.0
0.37405337184325266 -0.009393851728695852 0.0
0.39584353265803934 -0.009857164263571845 0.0
0.41786171967331265 -0.010277984616623645 0.0
0.4400896273978794 -0.010652308502667338 0.0
0.4625081096323588 -0.010976522268702655 0.0
0.48509726408709924 -0.01124741710855221 0.0
0.5078365242438795 -0.011462201374110349 0.0
0.5307047577049755 -0.011618510861231352 0.0
0.5536803702479677 -0.011714416964141012 0.0
0.576741414783167 -0.01174843260849977 0.0
0.5998657043930106 -0.011719515889799702 0.0
0.6230309286193711 -0.011627071360557292 0.0
0.6462147721556329 -0.011470948926680642 0.0
0.6693950350956993 -0.011251440330356277 0.0
0.6925497538919263 -0.010969273213724186 0.0
0.7156573221783644 -0.010625602774400117 0.0
0.7386966106246854 -0.010222001040468246 0.0
0.7616470849997417 -0.009760443808814792 0.0
0.7844889216418535 -0.009243295306512198 0.0
0.8072031195555216 -0.008673290650307027 0.0
0.8297716083812839 -0.008053516194024434 0.0
0.8521773515166798 -0.007387387867795966 0.0
0.8744044437016706 -0.006678627626363921 0.0
0.89643820242114 -0.005931238136239122 0.0
0.9182652525200908 -0.005149475843117566 0.0
0.9398736034736206 -0.004337822571628101 0.0
0.9612527188034339 -0.00350095581912663 0.0
0.9823935771852721 -0.002643717913816317 0.0
1.0032887248468851 -0.0017710842149086235 0.0
1.0239323189137486 -0.0008881305388034343 0.0
1.0443201614193194 -3.2022215708720503e-13 0.0
1.0644497237577617 0.0008881305381673137 0.0
1.084320161419536 0.001771084214281372 0.0
1.1039323189141101 0.0026437179132003832 0.0
1.1232887248473638 0.0035009558185243096 0.0
1.1423935771858624 0.004337822571041596 0.0
1.1612527188041286 0.005149475842548851 0.0
1.1798736034744115 0.005931238135689969 0.0
1.1982652525209694 0.006678627625835903 0.0
1.2164382024220952 0.00738738786729039 0.0
1.2344044437026938 0.00805351619354247 0.0
1.2521773515177606 0.008673290649849572 0.0
1.269771608382411 0.009243295306079901 0.0
1.287203119556686 0.009760443808408133 0.0
1.3044889216430446 0.010222001040087457 0.0
1.3216470850009499 0.01062560277404521 0.0
1.3386966106258988 0.01096927321339496 0.0
1.3556573221795745 0.011251440330052346 0.0
1.3725497538931235 0.011470948926401435 0.0
1.389395035096877 0.0116270713603021 0.0
1.4062147721567824 0.011719515889567657 0.0
1.423030928620487 0.0117484326082899 0.0
1.4398657043940866 0.011714416963952251 0.0
1.4567414147842004 0.011618510861062569 0.0
1.4736803702489543 0.011462201373960394 0.0
1.4907047577059147 0.01124741710841988 0.0
1.5078365242447678 0.010976522268586706 0.0
1.5250972640879352 0.010652308502566522 0.0
1.5425081096331401 0.010277984616536721 0.0
1.5600896273986073 0.009857164263497592 0.0
1.577861719673987 0.00939385172863309 0.0
1.595843532658662 0.008892425948637522 0.0
1.6140533718438228 0.008357622917211574 0.0
1.63250862536603 0.007794516643170246 0.0
1.6512256960280085 0.007208498841177834 0.0
1.67021994264763 0.006605257547972265 0.0
1.6895056313585832 0.00599075486901977 0.0
1.7090958974466146 0.005371204071804818 0.0
1.7290027182636956 0.004753046252381625 0.0
1.7492368977195736 0.0041429268113625005 0.0
1.769808062806153 0.0035476719841840494 0.0
1.7907246725656303 0.002974265678262124 0.0
1.8119940398685852 0.0024298268765277327 0.0
1.8336223663239346 0.0019215878728354428 0.0
1.8556147905990952 0.0014568736098800016 0.0
1.877975450386561 0.0010430823945727823 0.0
1.9007075582127213 0.0006876682693631002 0.0
1.9238134912467912 0.00039812532078952953 0.0
1.9472948952326103 0.0001819742086793315 0.0
1.9711528026343879 4.675120095076155e-05 0.0

CELLS 100 300
2 0 2
2 2 3
2 3 4
2 4 5
2 5 6
2 6 7
2 7 8
2 8 9
2 9 10
2 10 11
2 11 12
2 12 13
2 13 14
2 14 15
2 15 16
2 16 17
2 17 18
2 18 19
2 19 20
2 20 21
2 21 22
2 22 23
2 23 24
2 24 25
2 25 26
2 26 27
2 27 28
2 28 29
2 29 30
2 30 31
2 31 32
2 32 33
2 33 34
2 34 35
2 35 36
2 36 37
2 37 38
2 38 39
2 39 40
2 40 41
2 41 42
2 42 43
2 43 44
2 44 45
2 45 46
2 46 47
2 47 48
2 48 49
2 49 50
2 50 51
2 51 52
2 52 53
2 53 54
2 54 55
2 55 56
2 56 57
2 57 58
2 58 59
2 59 60
2 60 61
2 61 62
2 62 63
2 63 64
2 64 65
2 65 66
2 66 67
2 67 68
2 68 69
2 69 70
2 70 71
2 71 72
2 72 73
2 73 74
2 74 75
2 75 76
2 76 77
2 77 78
2 78 79
2 79 80
2 80 81
2 81 82
2 82 83
2 83 84
2 84 85
2 85 86
2 86 87
2 87 88
2 88 89
2 89 90
2 90 91
2 91 92
2 92 93
2 93 94
2 94 95
2 95 96
2 96 97
2 97 98
2 98 99
2 99 100
2 100 1

CELL_TYPES 100
3
3
3
3
3
3
3
3
3
3
3
3
3
3
3
3
3
3
3
3
3
3
3
3
3
3
3
3
3
3
3
3
3
3
3
3
3
3
3
3
3
3
3
3
3
3
3
3
3
3
3
3
3
3
3
3
3
3
3
3
3
3
3
3
3
3
3
3
3
3
3
3
3
3
3
3
3
3
3
3
3
3
3
3
3
3
3
3
3
3
3
3
3
3
3
3
3
3
3
3

POINT_DATA 101
SCALARS MODE2_619.3044_Hz float 1
LOOKUP_TABLE default
0.02667832639425423
0.0
0.00027042069938373756
0.026699083007919962
0.051226201980524154
0.07359708701882048
0.09382103666866715
0.11191006164382647
0.12787948854935227
0.14174868299595036
0.15354173192877954
0.16328807272750234
0.17102307352289706
0.17678857506283804
0.1806334097950444
0.1826139209232872
0.18279451462093835
0.18124829451165347
0.1780578524601111
0.17331632962095828
0.1671289269340401
0.1596151531053225
0.15091228306524565
0.14118081837980806
0.13061329096678734
0.11944868054755584
0.10799616053171027
0.09667354918822504
0.08606517552256139
0.07699038186628254
0.07052139906996478
0.0677930767341908
0.069501413157734
0.07546310527553234
0.0847864704938791
0.09641173806822753
0.10945160536274122
0.12325377272168135
0.13735162014845098
0.15140445605845224
0.16515386844506685
0.17839589591397076
0.19096401355270906
0.2027188105813003
0.21354169713990498
0.22333103645466829
0.23199975169910012
0.23947384093246493
0.24569145754367722
0.2506023455246499
0.25416749795121163
0.2563589555978672
0.25715969339290257
0.2565635628299336
0.2545752729356508
0.25121040379507276
0.24649545700115738
0.24046795850898092
0.23317664320751727
0.224681769745335
0.21505564287344375
0.2043834655890343
0.19276471631338998
0.18031536755705324
0.16717146778713352
0.15349495947738576
0.13948320450631146
0.1253846671393985
0.11152460413669278
0.09834571135528687
0.08646546035877668
0.07673032312149616
0.07018092003459671
0.06776358520223974
0.0697975269831806
0.07570959356788932
0.08439972464774075
0.09476895026186898
0.10595814165819112
0.11735092830459416
0.1285076113813822
0.13910468075092816
0.14889365925404818
0.15767548617693478
0.16528493749394357
0.17158112105142395
0.17644159358226474
0.17975864487127408
0.18143689083568149
0.18139166359648984
0.17954788762881996
0.17583924915808627
0.17020753655747473
0.16260207255394285
0.15297918586723497
0.1413016869830855
0.12753832390979083
0.11166320132919325
0.09365515225078395
0.07349705764895377
0.05117512820322159

