# vtk DataFile Version 2.0
mesh vtk view
ASCII
DATASET UNSTRUCTURED_GRID
POINTS 101 double
0.0012892013020570207 0.0 0.0
2.0 0.0 0.0
0.0199999999999621 -1.2994242666919582e-05 0.0
0.038710798697978006 -5.115914143630207e-05 0.0
0.05748293377760009 -0.00011326803307211284 0.0
0.07631639721062808 -0.00019809453039813338 0.0
0.09521116842048646 -0.00030441283216973086 0.0
0.11416720844296332 -0.0004309981466620333 0.0
0.1331844543938007 -0.0005766272228391578 0.0
0.15226281424294733 -0.0007400789829740009 0.0
0.17140216189517452 -0.0009201352505961146 0.0
0.19060233257657974 -0.00111558156765598 0.0
0.2098631185263304 -0.0013252080948084645 0.0
0.2291842649928307 -0.0015478105887371581 0.0
0.24856546653326675 -0.0017821914504643206 0.0
0.26800636361527097 -0.0020271608386197453 0.0
0.2875065395191392 -0.002281537841674095 0.0
0.3070655175388013 -0.002544151703181778 0.0
0.3266827584794923 -0.00281384309412372 0.0
0.3463576584497015 -0.0030894654264904094 0.0
0.36608954694471746 -0.003369886202303068 0.0
0.3858776852187398 -0.003653988392334664 0.0
0.40572126494218824 -0.003940671838863228 0.0
0.42561940714052643 -0.0042288546768669945 0.0
0.4455711614105447 -0.004517474768155679 0.0
0.46557550540970544 -0.004805491143023604 0.0
0.48563134461378704 -0.005091885444109222 0.0
0.5057375123377176 -0.005375663367251539 0.0
0.5258927700141109 -0.005655856094247052 0.0
0.5460958077236707 -0.005931521712531354 0.0
0.5663452449712612 -0.006201746616936944 0.0
0.5866396317010903 -0.006465646888813593 0.0
0.6069774495440929 -0.006722369647939224 0.0
0.6273571132902569 -0.00697109437279785 0.0
0.6477769725782944 -0.00721103418495651 0.0
0.6682353137947252 -0.007441437093434961 0.0
0.6887303621741107 -0.007661587195130394 0.0
0.7092602840918655 -0.007870805827533961 0.0
0.7298231895407585 -0.008068452670156483 0.0
0.750417134781936 -0.00825392679126725 0.0
0.7710401251609993 -0.008426667636741386 0.0
0.7916901180794195 -0.008586155958008674 0.0
0.8123650261112961 -0.008731914676298677 0.0
0.833062720255246 -0.008863509680583673 0.0
0.8537810333109722 -0.00898055055683204 0.0
0.8745177633698618 -0.009082691246399594 0.0
0.8952706774087649 -0.00916963063160529 0.0
0.9160375149759354 -0.00924111304675941 0.0
0.9368159919579615 -0.009296928713137432 0.0
0.9576038044163737 -0.009336914096620212 0.0
0.9783986324824953 -0.009360952186950572 0.0
0.9991981442990341 -0.009368972697788134 0.0
1.0199999999967637 -0.009360952186976551 0.0
1.040801855694522 -0.009336914096671827 0.0
1.0616013675111668 -0.009296928713214183 0.0
1.0823961955774233 -0.009241113046860629 0.0
1.1031840080359803 -0.009169630631730145 0.0
1.1239624850181595 -0.009082691246547106 0.0
1.1447293225854893 -0.008980550557001083 0.0
1.1654822366245587 -0.008863509680772997 0.0
1.1862189666836207 -0.00873191467650692 0.0
1.2069372797395257 -0.00858615595823434 0.0
1.2276349738836594 -0.008426667636982911 0.0
1.2483098819157232 -0.008253926791522996 0.0
1.2689598748343351 -0.008068452670424723 0.0
1.2895828652135934 -0.007870805827812938 0.0
1.3101768104549676 -0.0076615871954183205 0.0
1.3307397159040588 -0.0074414370937300155 0.0
1.351269637822014 -0.007211034185256832 0.0
1.3717646862016002 -0.0069710943731016144 0.0
1.3922230274182306 -0.006722369648244633 0.0
1.4126428867064653 -0.00646564688911889 0.0
1.4330225504528258 -0.006201746617240393 0.0
1.4533603682960223 -0.005931521712831307 0.0
1.4736547550260417 -0.005655856094541944 0.0
1.493904192273817 -0.005375663367539923 0.0
1.5141072299835578 -0.005091885444389718 0.0
1.5342624876601274 -0.004805491143294937 0.0
1.5543686553842297 -0.0045174747684166945 0.0
1.5744244945884767 -0.0042288546771166655 0.0
1.5944288385877976 -0.003940671839100618 0.0
1.6143805928579702 -0.0036539883925589926 0.0
1.6342787350564563 -0.0033698862025136746 0.0
1.6541223147800457 -0.0030894654266867823 0.0
1.6739104530542042 -0.002813843094305437 0.0
1.6936423415493496 -0.0025441517033485917 0.0
1.7133172415196807 -0.002281537841825889 0.0
1.7329344824604866 -0.002027160838756535 0.0
1.75249346048026 -0.0017821914505862422 0.0
1.7719936363842324 -0.001547810588844617 0.0
1.7914345334663326 -0.001325208094901964 0.0
1.8108157350068472 -0.0011155815677360071 0.0
1.8301368814734107 -0.0009201352506632367 0.0
1.8493976674232158 -0.0007400789830289328 0.0
1.868597838104669 -0.0005766272228827452 0.0
1.8877371857569365 -0.0004309981466952386 0.0
1.9068155456061173 -0.0003044128321936466 0.0
1.925832791556987 -0.0001980945304140463 0.0
1.9447888315794963 -0.00011326803308147511 0.0
1.9636836027893807 -5.115914144071142e-05 0.0
1.9825170662224272 -1.2994242668095199e-05 0.0

CELLS 100 300
2 0 2
2 2 3
2 3 4
2 4 5
2 5 6
2 6 7
2 7 8
2 8 9
2 9 10
2 10 11
2 11 12
2 12 13
2 13 14
2 14 15
2 15 16
2 16 17
2 17 18
2 18 19
2 19 20
2 20 21
2 21 22
2 22 23
2 23 24
2 24 25
2 25 26
2 26 27
2 27 28
2 28 29
2 29 30
2 30 31
2 31 32
2 32 33
2 33 34
2 34 35
2 35 36
2 36 37
2 37 38
2 38 39
2 39 40
2 40 41
2 41 42
2 42 43
2 43 44
2 44 45
2 45 46
2 46 47
2 47 48
2 48 49
2 49 50
2 50 51
2 51 52
2 52 53
2 53 54
2 54 55
2 55 56
2 56 57
2 57 58
2 58 59
2 59 60
2 60 61
2 61 62
2 62 63
2 63 64
2 64 65
2 65 66
2 66 67
2 67 68
2 68 69
2 69 70
2 70 71
2 71 72
2 72 73
2 73 74
2 74 75
2 75 76
2 76 77
2 77 78
2 78 79
2 79 80
2 80 81
2 81 82
2 82 83
2 83 84
2 84 85
2 85 86
2 86 87
2 87 88
2 88 89
2 89 90
2 90 91
2 91 92
2 92 93
2 93 94
2 94 95
2 95 96
2 96 97
2 97 98
2 98 99
2 99 100
2 100 1

CELL_TYPES 100
3
3
3
3
3
3
3
3
3
3
3
3
3
3
3
3
3
3
3
3
3
3
3
3
3
3
3
3
3
3
3
3
3
3
3
3
3
3
3
3
3
3
3
3
3
3
3
3
3
3
3
3
3
3
3
3
3
3
3
3
3
3
3
3
3
3
3
3
3
3
3
3
3
3
3
3
3
3
3
3
3
3
3
3
3
3
3
3
3
3
3
3
3
3
3
3
3
3
3
3

POINT_DATA 101
SCALARS MODE1_224.6674_Hz float 1
LOOKUP_TABLE default
0.009839986425673726
0.0
9.918014452078463e-05
0.009847731018820213
0.01923125756797109
0.028156174108291288
0.03662511581195344
0.04464086832166672
0.05220633260853886
0.05932455773784835
0.06599878065283044
0.07223246627141555
0.07802934662242618
0.08339345874820135
0.08832918136445082
0.09284127036458886
0.09693489330658514
0.1006156630592228
0.10388967082205085
0.10676351877379067
0.10924435264962298
0.11133989460088535
0.11305847675240305
0.1144090759440515
0.11540135022666352
0.11604567777848339
0.11635319901867203
0.11633586281913487
0.1160064778546191
0.11537877028068476
0.11446744908360029
0.11328828059331075
0.11185817376935578
0.11019527792462196
0.10831909448671911
0.10625060412339407
0.10401240994341089
0.10162889633141185
0.09912640100617437
0.09653339472872755
0.09388065825194737
0.09120143905313122
0.08853156063396189
0.08590944452592082
0.08337599020785583
0.0809742430539394
0.07874876974297221
0.07674466192433503
0.0750061125953192
0.07357456543914814
0.07248652832715803
0.07177125602346147
0.07144861109297575
0.07152745916654862
0.072004905593091
0.07286653094130174
0.07408757674419217
0.0756348444580956
0.07746896438320602
0.07954668951337497
0.08182294861189174
0.0842525068231606
0.08679118850547911
0.08939669236272023
0.09202906909452273
0.09465094384422962
0.0972275603450378
0.09972671012242354
0.1021185946218455
0.10437565403648802
0.10647238523386
0.10838516268797715
0.11009207034340475
0.1115727483279264
0.11280825586717572
0.11378095020178268
0.11447438043331067
0.11487319479053339
0.11496305964658883
0.11473058861955157
0.11416328018151457
0.11324946233889582
0.11197824310113592
0.11033946561003373
0.10832366694849219
0.10592203978109833
0.103126396098001
0.0999291324380022
0.0963231960575097
0.09230205159027571
0.08785964781016664
0.0829903841671253
0.07768907681659548
0.0719509239068135
0.06577146992904184
0.05914656897777699
0.052072346822797856
0.04454516179784075
0.03656156479196276
0.0281182596948488
0.019212071430569067

