# vtk DataFile Version 2.0
mesh vtk view
ASCII
DATASET UNSTRUCTURED_GRID
POINTS 101 double
0.00957925718364426 0.0 0.0
2.0 0.0 0.0
0.0199999999999621 9.709864812718086e-05 0.0
0.049579257183481495 0.0003779464334070647 0.0
0.07837494837447043 0.0008268756662490691 0.0
0.10638752528575729 0.0014282340978999128 0.0
0.1336181335639034 0.0021664018964108697 0.0
0.16006891755765124 0.0030258144205098435 0.0
0.18574329535036901 0.003990990197418006 0.0
0.2106462041396584 0.005046563512781025 0.0
0.23478431609570413 0.006177321024079019 0.0
0.2581662248875285 0.007368241813306434 0.0
0.2808026031320738 0.008604540300529795 0.0
0.30270633109401024 0.009871711447269763 0.0
0.32389259704298673 0.011155577687618894 0.0
0.34437896975894816 0.012442337035690117 0.0
0.3641854437635673 0.013718611830448736 0.0
0.3833344579463242 0.014971497593273264 0.0
0.4018508883459174 0.016188611489733964 0.0
0.4197620159404327 0.01735813990506751 0.0
0.4370974703921606 0.018468884662663734 0.0
0.45388915078436387 0.01951030743652216 0.0
0.4701711244765503 0.020472571932033834 0.0
0.48597950529080325 0.02134658343452604 0.0
0.5013523123242154 0.022124025351693707 0.0
0.5163293107601173 0.022797392404228595 0.0
0.530951836123169 0.02336002014853152 0.0
0.5452626034896763 0.023806110546229192 0.0
0.5593055032241435 0.024130753327172814 0.0
0.5731253848654418 0.024329942925523644 0.0
0.5867678308306176 0.024400590802268758 0.0
0.6002789216407625 0.024340533001891693 0.0
0.6137049944012184 0.024148532825772843 0.0
0.6270923962872643 0.02382427854002903 0.0
0.6404872347961782 0.023368376070739966 0.0
0.6539351265269115 0.02278233667465793 0.0
0.6674809462395142 0.022068559608369478 0.0
0.6811685779277447 0.02123030985328021 0.0
0.6950406696101403 0.02027169098753842 0.0
0.7091383935071136 0.019197613328909954 0.0
0.7235012132247001 0.01801375750448383 0.0
0.7381666595094751 0.01672653363374306 0.0
0.7531701160742426 0.01534303634080701 0.0
0.7685446169206206 0.013870995839371224 0.0
0.7843206565030818 0.012318725359881256 0.0
0.8005260139896967 0.010695065212628793 0.0
0.8171855927783399 0.00900932380261221 0.0
0.8343212763239322 0.007271215932032233 0.0
0.8519518012230116 0.005490798744080045 0.0
0.8700926483871747 0.0036784056771179113 0.0
0.8887559530173552 0.0018445788113609794 0.0
0.9079504339672113 6.650767877965028e-13 0.0
0.9276813429566949 -0.0018445788100398058 0.0
0.9479504339670195 -0.003678405675815158 0.0
0.9687559530169124 -0.005490798742800797 0.0
0.9900926483864689 -0.00727121593078126 0.0
1.0119518012220579 -0.009009323801394086 0.0
1.0343212763227454 -0.010695065211447615 0.0
1.0571855927769358 -0.012318725358740708 0.0
1.0805260139880943 -0.013870995838274572 0.0
1.1043206565013008 -0.015343036339756968 0.0
1.1285446169186824 -0.01672653363274206 0.0
1.1531701160721677 -0.01801375750353373 0.0
1.1781666595072842 -0.01919761332801211 0.0
1.2035012132224152 -0.02027169098669382 0.0
1.2291383935047568 -0.021230309852489342 0.0
1.2550406696077319 -0.022068559607632363 0.0
1.2811685779253053 -0.02278233667397415 0.0
1.3074809462370656 -0.023368376070108728 0.0
1.3339351265244725 -0.02382427853944914 0.0
1.3604872347937635 -0.02414853282524283 0.0
1.387092396284889 -0.024340533001409755 0.0
1.4137049943988964 -0.024400590801832878 0.0
1.440278921638506 -0.024329942925131607 0.0
1.466767830828433 -0.02413075332682226 0.0
1.4931253848633348 -0.023806110545917747 0.0
1.519305503222119 -0.02336002014825668 0.0
1.5452626034877406 -0.02279739240398778 0.0
1.5709518361213253 -0.022124025351484323 0.0
1.5963293107583676 -0.021346583434345506 0.0
1.6213523123225604 -0.02047257193187962 0.0
1.6459795052892419 -0.019510307436391806 0.0
1.6701711244750803 -0.01846888466255486 0.0
1.6938891507829836 -0.01735813990497789 0.0
1.7170974703908704 -0.016188611489661282 0.0
1.7397620159392317 -0.014971497593215505 0.0
1.7618508883447963 -0.013718611830403939 0.0
1.7833344579452841 -0.01244233703565645 0.0
1.8041854437626128 -0.011155577687594627 0.0
1.824378969758069 -0.009871711447254145 0.0
1.843892597042178 -0.008604540300522118 0.0
1.8627063310932885 -0.007368241813305335 0.0
1.8808026031314606 -0.006177321024082874 0.0
1.8981662248870246 -0.0050465635127883695 0.0
1.9147843160953084 -0.003990990197427459 0.0
1.9306462041393657 -0.003025814420520004 0.0
1.9457432953501757 -0.0021664018964203946 0.0
1.960068917557545 -0.0014282340979079777 0.0
1.973618133563871 -0.0008268756662551769 0.0
1.986387525285791 -0.00037794643341091934 0.0
1.9983749483745694 -9.709864812850479e-05 0.0

CELLS 100 300
2 0 2
2 2 3
2 3 4
2 4 5
2 5 6
2 6 7
2 7 8
2 8 9
2 9 10
2 10 11
2 11 12
2 12 13
2 13 14
2 14 15
2 15 16
2 16 17
2 17 18
2 18 19
2 19 20
2 20 21
2 21 22
2 22 23
2 23 24
2 24 25
2 25 26
2 26 27
2 27 28
2 28 29
2 29 30
2 30 31
2 31 32
2 32 33
2 33 34
2 34 35
2 35 36
2 36 37
2 37 38
2 38 39
2 39 40
2 40 41
2 41 42
2 42 43
2 43 44
2 44 45
2 45 46
2 46 47
2 47 48
2 48 49
2 49 50
2 50 51
2 51 52
2 52 53
2 53 54
2 54 55
2 55 56
2 56 57
2 57 58
2 58 59
2 59 60
2 60 61
2 61 62
2 62 63
2 63 64
2 64 65
2 65 66
2 66 67
2 67 68
2 68 69
2 69 70
2 70 71
2 71 72
2 72 73
2 73 74
2 74 75
2 75 76
2 76 77
2 77 78
2 78 79
2 79 80
2 80 81
2 81 82
2 82 83
2 83 84
2 84 85
2 85 86
2 86 87
2 87 88
2 88 89
2 89 90
2 90 91
2 91 92
2 92 93
2 93 94
2 94 95
2 95 96
2 96 97
2 97 98
2 98 99
2 99 100
2 100 1

CELL_TYPES 100
3
3
3
3
3
3
3
3
3
3
3
3
3
3
3
3
3
3
3
3
3
3
3
3
3
3
3
3
3
3
3
3
3
3
3
3
3
3
3
3
3
3
3
3
3
3
3
3
3
3
3
3
3
3
3
3
3
3
3
3
3
3
3
3
3
3
3
3
3
3
3
3
3
3
3
3
3
3
3
3
3
3
3
3
3
3
3
3
3
3
3
3
3
3
3
3
3
3
3
3

POINT_DATA 101
SCALARS MODE2_619.3044_Hz float 1
LOOKUP_TABLE default
0.02667832639425423
0.0
0.00027042069938373756
0.026699083007919962
0.051226201980524154
0.07359708701882048
0.09382103666866715
0.11191006164382647
0.12787948854935227
0.14174868299595036
0.15354173192877954
0.16328807272750234
0.17102307352289706
0.17678857506283804
0.1806334097950444
0.1826139209232872
0.18279451462093835
0.18124829451165347
0.1780578524601111
0.17331632962095828
0.1671289269340401
0.1596151531053225
0.15091228306524565
0.14118081837980806
0.13061329096678734
0.11944868054755584
0.10799616053171027
0.09667354918822504
0.08606517552256139
0.07699038186628254
0.07052139906996478
0.0677930767341908
0.069501413157734
0.07546310527553234
0.0847864704938791
0.09641173806822753
0.10945160536274122
0.12325377272168135
0.13735162014845098
0.15140445605845224
0.16515386844506685
0.17839589591397076
0.19096401355270906
0.2027188105813003
0.21354169713990498
0.22333103645466829
0.23199975169910012
0.23947384093246493
0.24569145754367722
0.2506023455246499
0.25416749795121163
0.2563589555978672
0.25715969339290257
0.2565635628299336
0.2545752729356508
0.25121040379507276
0.24649545700115738
0.24046795850898092
0.23317664320751727
0.224681769745335
0.21505564287344375
0.2043834655890343
0.19276471631338998
0.18031536755705324
0.16717146778713352
0.15349495947738576
0.13948320450631146
0.1253846671393985
0.11152460413669278
0.09834571135528687
0.08646546035877668
0.07673032312149616
0.07018092003459671
0.06776358520223974
0.0697975269831806
0.07570959356788932
0.08439972464774075
0.09476895026186898
0.10595814165819112
0.11735092830459416
0.1285076113813822
0.13910468075092816
0.14889365925404818
0.15767548617693478
0.16528493749394357
0.17158112105142395
0.17644159358226474
0.17975864487127408
0.18143689083568149
0.18139166359648984
0.17954788762881996
0.17583924915808627
0.17020753655747473
0.16260207255394285
0.15297918586723497
0.1413016869830855
0.12753832390979083
0.11166320132919325
0.09365515225078395
0.07349705764895377
0.05117512820322159

