# vtk DataFile Version 2.0
mesh vtk view
ASCII
DATASET UNSTRUCTURED_GRID
POINTS 101 double
-0.0002802611526210913 0.0 0.0
2.0 0.0 0.0
0.0199999999999621 2.8248353623738204e-06 0.0
0.040280261152521604 1.1121552486152618e-05 0.0
0.06054718830907837 2.4623485450459295e-05 0.0
0.08080078321489009 4.306402834742027e-05 0.0
0.10104105034312753 6.617670264559362e-05 0.0
0.12126799816427626 9.3695249274355e-05 0.0
0.14148164034883323 0.000125353744095469 0.0
0.1616819969033291 0.00016088673542913055 0.0
0.18186909523976422 0.00020002940230350304 0.0
0.2020429711785519 0.0002425177320991259 0.0
0.22220366988509047 0.0002880887162627095 0.0
0.2423512467401595 0.00033648056276894717 0.0
0.26248576814435826 0.0003874329240139825 0.0
0.2826073122568974 0.00044068713883037915 0.0
0.30271596966902886 0.0004959864873204552 0.0
0.3228118440125095 0.0005530764572134297 0.0
0.3428950525035926 0.0006117050204616779 0.0
0.36296572642304115 0.0006716229188022625 0.0
0.38302401153274934 0.0007325839570224055 0.0
0.4030700684296299 0.0007943453026814482 0.0
0.4231040728375048 0.0008566677910572228 0.0
0.44312621583779505 0.0009193162341015201 0.0
0.46313670403989377 0.0009820597322077558 0.0
0.4831357596921792 0.0010446719876138263 0.0
0.5031236207346991 0.0011069316182846128 0.0
0.523100540794643 0.0011686224711416383 0.0
0.5430667891257908 0.0012295339335319669 0.0
0.5630226504932068 0.0012894612418546413 0.0
0.5829684250045292 0.0013482057862906393 0.0
0.6029044278892777 0.0014055754106116498 0.0
0.6228309892276843 0.0014613847060737433 0.0
0.642748453630621 0.0015154552984343141 0.0
0.6626571798722811 0.0015676161271644575 0.0
0.6825575404773337 0.001617703715964121 0.0
0.7024499212643527 0.0016655624337239975 0.0
0.7223347208473784 0.0017110447451160772 0.0
0.7422123500975479 0.001754011450034017 0.0
0.7620832315667863 0.001794331911145053 0.0
0.7819477988756145 0.0018318842688568218 0.0
0.801806496067191 0.0018665556430453626 0.0
0.8216597769297554 0.001898242320934494 0.0
0.8415081042896954 0.0019268499305616668 0.0
0.86135194927751 0.0019522935993113114 0.0
0.8811917905689847 0.0019744980970433884 0.0
0.9010281136039346 0.001993397963392453 0.0
0.9208614097849134 0.0020089376188607397 0.0
0.9406921756583149 0.0020210714593777014 0.0
0.9605209120803282 0.0020297639340478707 0.0
0.9803481233702307 0.0020349896058588185 0.0
1.0001743164535473 0.002036733195171332 0.0
1.0199999999975566 0.0020349896058644663 0.0
1.0398256835415867 0.0020297639340590918 0.0
1.0596518766249892 0.0020210714593943864 0.0
1.0794790879149967 0.0020089376188827442 0.0
1.0993078243371142 0.0019933979634195955 0.0
1.1191385902106181 0.0019744980970754565 0.0
1.1389718863916978 0.00195229359934806 0.0
1.1588082094267473 0.0019268499306028242 0.0
1.1786480507183188 0.0018982423209797639 0.0
1.19849189570623 0.0018665556430944206 0.0
1.2183402230662654 0.0018318842689093273 0.0
1.2381935039289236 0.0017943319112006502 0.0
1.2580522011205943 0.00175401145009233 0.0
1.2779167684295158 0.0017110447451767247 0.0
1.2977876498988468 0.0016655624337865904 0.0
1.3176652791491075 0.0016177037160282632 0.0
1.3375500787322254 0.0015676161272297452 0.0
1.3574424595193362 0.00151545529850035 0.0
1.3773428201244813 0.0014613847061401366 0.0
1.3972515463662325 0.0014055754106780186 0.0
1.4171690107692623 0.0013482057863566062 0.0
1.437095572107762 0.0012894612419198487 0.0
1.4570315749926053 0.0012295339335960738 0.0
1.4769773495040217 0.0011686224712043303 0.0
1.4969332108715339 0.00110693161834559 0.0
1.5168994592027787 0.0010446719876728116 0.0
1.5368763792628213 0.0009820597322644981 0.0
1.5568642403054396 0.0009193162341557963 0.0
1.5768632959578257 0.0008566677911088294 0.0
1.5968737841600265 0.0007943453027302153 0.0
1.6168959271604202 0.0007325839570681896 0.0
1.6369299315683987 0.0006716229188449522 0.0
1.6569759884653854 0.0006117050205011815 0.0
1.6770342735752009 0.0005530764572496935 0.0
1.6971049474947586 0.0004959864873534538 0.0
1.717188155985951 0.00044068713886011594 0.0
1.7372840303295431 0.00038743292404048714 0.0
1.7573926877417876 0.0003364805627923079 0.0
1.777514231854439 0.00028808871628303547 0.0
1.7976487532587382 0.00024251773211652312 0.0
1.8177963301138977 0.00020002940231809478 0.0
1.8379570288205263 0.00016088673544107225 0.0
1.8581309047594055 0.00012535374410494452 0.0
1.8783180030959323 9.369524928157355e-05 0.0
1.8985183596505226 6.61767026507927e-05 0.0
1.9187320018351808 4.30640283508796e-05 0.0
1.938958949656439 2.4623485452494573e-05 0.0
1.9591992167847883 1.1121552487111171e-05 0.0
1.9794528116907122 2.8248353626293893e-06 0.0

CELLS 100 300
2 0 2
2 2 3
2 3 4
2 4 5
2 5 6
2 6 7
2 7 8
2 8 9
2 9 10
2 10 11
2 11 12
2 12 13
2 13 14
2 14 15
2 15 16
2 16 17
2 17 18
2 18 19
2 19 20
2 20 21
2 21 22
2 22 23
2 23 24
2 24 25
2 25 26
2 26 27
2 27 28
2 28 29
2 29 30
2 30 31
2 31 32
2 32 33
2 33 34
2 34 35
2 35 36
2 36 37
2 37 38
2 38 39
2 39 40
2 40 41
2 41 42
2 42 43
2 43 44
2 44 45
2 45 46
2 46 47
2 47 48
2 48 49
2 49 50
2 50 51
2 51 52
2 52 53
2 53 54
2 54 55
2 55 56
2 56 57
2 57 58
2 58 59
2 59 60
2 60 61
2 61 62
2 62 63
2 63 64
2 64 65
2 65 66
2 66 67
2 67 68
2 68 69
2 69 70
2 70 71
2 71 72
2 72 73
2 73 74
2 74 75
2 75 76
2 76 77
2 77 78
2 78 79
2 79 80
2 80 81
2 81 82
2 82 83
2 83 84
2 84 85
2 85 86
2 86 87
2 87 88
2 88 89
2 89 90
2 90 91
2 91 92
2 92 93
2 93 94
2 94 95
2 95 96
2 96 97
2 97 98
2 98 99
2 99 100
2 100 1

CELL_TYPES 100
3
3
3
3
3
3
3
3
3
3
3
3
3
3
3
3
3
3
3
3
3
3
3
3
3
3
3
3
3
3
3
3
3
3
3
3
3
3
3
3
3
3
3
3
3
3
3
3
3
3
3
3
3
3
3
3
3
3
3
3
3
3
3
3
3
3
3
3
3
3
3
3
3
3
3
3
3
3
3
3
3
3
3
3
3
3
3
3
3
3
3
3
3
3
3
3
3
3
3
3

POINT_DATA 101
SCALARS MODE1_224.6674_Hz float 1
LOOKUP_TABLE default
0.009839986425673726
0.0
9.918014452078463e-05
0.009847731018820213
0.01923125756797109
0.028156174108291288
0.03662511581195344
0.04464086832166672
0.05220633260853886
0.05932455773784835
0.06599878065283044
0.07223246627141555
0.07802934662242618
0.08339345874820135
0.08832918136445082
0.09284127036458886
0.09693489330658514
0.1006156630592228
0.10388967082205085
0.10676351877379067
0.10924435264962298
0.11133989460088535
0.11305847675240305
0.1144090759440515
0.11540135022666352
0.11604567777848339
0.11635319901867203
0.11633586281913487
0.1160064778546191
0.11537877028068476
0.11446744908360029
0.11328828059331075
0.11185817376935578
0.11019527792462196
0.10831909448671911
0.10625060412339407
0.10401240994341089
0.10162889633141185
0.09912640100617437
0.09653339472872755
0.09388065825194737
0.09120143905313122
0.08853156063396189
0.08590944452592082
0.08337599020785583
0.0809742430539394
0.07874876974297221
0.07674466192433503
0.0750061125953192
0.07357456543914814
0.07248652832715803
0.07177125602346147
0.07144861109297575
0.07152745916654862
0.072004905593091
0.07286653094130174
0.07408757674419217
0.0756348444580956
0.07746896438320602
0.07954668951337497
0.08182294861189174
0.0842525068231606
0.08679118850547911
0.08939669236272023
0.09202906909452273
0.09465094384422962
0.0972275603450378
0.09972671012242354
0.1021185946218455
0.10437565403648802
0.10647238523386
0.10838516268797715
0.11009207034340475
0.1115727483279264
0.11280825586717572
0.11378095020178268
0.11447438043331067
0.11487319479053339
0.11496305964658883
0.11473058861955157
0.11416328018151457
0.11324946233889582
0.11197824310113592
0.11033946561003373
0.10832366694849219
0.10592203978109833
0.103126396098001
0.0999291324380022
0.0963231960575097
0.09230205159027571
0.08785964781016664
0.0829903841671253
0.07768907681659548
0.0719509239068135
0.06577146992904184
0.05914656897777699
0.052072346822797856
0.04454516179784075
0.03656156479196276
0.0281182596948488
0.019212071430569067

