# vtk DataFile Version 2.0
mesh vtk view
ASCII
DATASET UNSTRUCTURED_GRID
POINTS 101 double
-0.006740958758860775 0.0 0.0
2.0 0.0 0.0
0.0199999999999621 -6.832867831171985e-05 0.0
0.03325904124112519 -0.00026596230499015657 0.0
0.04706948077332628 -0.0005818754688419374 0.0
0.06143100072457051 -0.0010050536244480864 0.0
0.07634279489913258 -0.0015245050382150561 0.0
0.09180335431086692 -0.0021292768144328526 0.0
0.10781027364185639 -0.0028084745833682257 0.0
0.12436007856785955 -0.0035512854349199797 0.0
0.14144807385799746 -0.00434700368361116 0.0
0.1590682121155504 -0.00518505905380823 0.0
0.17721298298044771 -0.0060550468781505945 0.0
0.19587332256273332 -0.00694675990733798 0.0
0.215038542820785 -0.007850221335731813 0.0
0.23469628053908648 -0.008755718654744895 0.0
0.25483246549869937 -0.009653837954760219 0.0
0.2754313073699932 -0.01053549830637748 0.0
0.29647530079240236 -0.011391985863146119 0.0
0.3179452480406067 -0.012214987340603058 0.0
0.33982029861151375 -0.012996622540392994 0.0
0.362078005002086 -0.013729475603478555 0.0
0.3846943938852627 -0.014406624692912696 0.0
0.407644051830689 -0.015021669824296098 0.0
0.43090022465892897 -0.015568758580821494 0.0
0.45443492946319497 -0.01604260946964234 0.0
0.47821907828168875 -0.016438532697114767 0.0
0.5022226123570099 -0.01675244816216128 0.0
0.5264146458771003 -0.016980900489491975 0.0
0.5507636180553466 -0.01712107094759071 0.0
0.5752374523760494 -0.017170786120115047 0.0
0.5998037218058477 -0.01712852322355341 0.0
0.6244298187520941 -0.01699341198850681 0.0
0.6490831285358882 -0.016765233046687093 0.0
0.6737312051406275 -0.016444412790520713 0.0
0.6983419479966785 -0.0160320146969815 0.0
0.722883778569192 -0.015529727131815557 0.0
0.7473258155292265 -0.014939847674530516 0.0
0.7716380473081819 -0.014265264028267773 0.0
0.7957915008620644 -0.01350943160182552 0.0
0.8197584055051449 -0.012676347873525657 0.0
0.8435123507120553 -0.011770523668189557 0.0
0.8670284368330455 -0.010796951499086412 0.0
0.8902834177188281 -0.009761071146224192 0.0
0.9132558343088487 -0.008668732660657178 0.0
0.9359261382996499 -0.00752615700147952 0.0
0.9582768050779127 -0.006339894527764147 0.0
0.9802924351753592 -0.005116781581800459 0.0
1.001959843579611 -0.0038638954125007714 0.0
1.0232681363158416 -0.0025885076987126037 0.0
1.0442087737982078 -0.0012980369413280964 0.0
1.0647756205371355 -4.680169988197611e-13 0.0
1.0849649808779216 0.0012980369403983814 0.0
1.1047756205374133 0.0025885076977958514 0.0
1.1242087737986899 0.00386389541160056 0.0
1.1432681363164978 0.005116781580920145 0.0
1.1619598435804332 0.006339894526906947 0.0
1.180292435176336 0.00752615700064832 0.0
1.198276805079033 0.00866873265985457 0.0
1.2159261383009008 0.009761071145452474 0.0
1.2332558343102142 0.010796951498347494 0.0
1.2502834177202955 0.011770523667485149 0.0
1.2670284368345996 0.012676347872857067 0.0
1.2835123507136803 0.013509431601193703 0.0
1.2997584055068268 0.014265264027673424 0.0
1.315791500863788 0.014939847673973978 0.0
1.3316380473099325 0.015529727131296843 0.0
1.347325815530988 0.016032014696500327 0.0
1.3628837785709507 0.016444412790076506 0.0
1.3783419479984211 0.01676523304627902 0.0
1.3937312051423438 0.01699341198813384 0.0
1.4090831285375662 0.01712852322321427 0.0
1.4244298187537257 0.017170786119808316 0.0
1.4398037218074238 0.01712107094731483 0.0
1.4552374523775655 0.016980900489245294 0.0
1.4707636180567973 0.016752448161942116 0.0
1.486414645878484 0.016438532696921363 0.0
1.5022226123583218 0.01604260946947288 0.0
1.5182190782829268 0.01556875858067415 0.0
1.534434929464356 0.015021669824169056 0.0
1.5509002246600143 0.014406624692804175 0.0
1.567644051831699 0.013729475603386825 0.0
1.5846943938861993 0.01299662254031638 0.0
1.6020780050029486 0.012214987340539992 0.0
1.619820298612304 0.011391985863094974 0.0
1.637945248041325 0.010535498306336835 0.0
1.656475300793055 0.009653837954728696 0.0
1.675431307370578 0.008755718654721203 0.0
1.6948324654992148 0.007850221335714735 0.0
1.7146962805395396 0.00694675990732699 0.0
1.735038542821183 0.0060550468781451925 0.0
1.7558733225630827 0.005185059053807456 0.0
1.7772129829807557 0.004347003683613873 0.0
1.7990682121158192 0.003551285434925148 0.0
1.8214480738582286 0.002808474583374878 0.0
1.8443600785680545 0.0021292768144400022 0.0
1.867810273642019 0.0015245050382217589 0.0
1.8918033543109978 0.0010050536244537618 0.0
1.916342794899229 0.0005818754688462354 0.0
1.9414310007246331 0.00026596230499286913 0.0
1.9670694807733609 6.83286783126515e-05 0.0

CELLS 100 300
2 0 2
2 2 3
2 3 4
2 4 5
2 5 6
2 6 7
2 7 8
2 8 9
2 9 10
2 10 11
2 11 12
2 12 13
2 13 14
2 14 15
2 15 16
2 16 17
2 17 18
2 18 19
2 19 20
2 20 21
2 21 22
2 22 23
2 23 24
2 24 25
2 25 26
2 26 27
2 27 28
2 28 29
2 29 30
2 30 31
2 31 32
2 32 33
2 33 34
2 34 35
2 35 36
2 36 37
2 37 38
2 38 39
2 39 40
2 40 41
2 41 42
2 42 43
2 43 44
2 44 45
2 45 46
2 46 47
2 47 48
2 48 49
2 49 50
2 50 51
2 51 52
2 52 53
2 53 54
2 54 55
2 55 56
2 56 57
2 57 58
2 58 59
2 59 60
2 60 61
2 61 62
2 62 63
2 63 64
2 64 65
2 65 66
2 66 67
2 67 68
2 68 69
2 69 70
2 70 71
2 71 72
2 72 73
2 73 74
2 74 75
2 75 76
2 76 77
2 77 78
2 78 79
2 79 80
2 80 81
2 81 82
2 82 83
2 83 84
2 84 85
2 85 86
2 86 87
2 87 88
2 88 89
2 89 90
2 90 91
2 91 92
2 92 93
2 93 94
2 94 95
2 95 96
2 96 97
2 97 98
2 98 99
2 99 100
2 100 1

CELL_TYPES 100
3
3
3
3
3
3
3
3
3
3
3
3
3
3
3
3
3
3
3
3
3
3
3
3
3
3
3
3
3
3
3
3
3
3
3
3
3
3
3
3
3
3
3
3
3
3
3
3
3
3
3
3
3
3
3
3
3
3
3
3
3
3
3
3
3
3
3
3
3
3
3
3
3
3
3
3
3
3
3
3
3
3
3
3
3
3
3
3
3
3
3
3
3
3
3
3
3
3
3
3

POINT_DATA 101
SCALARS MODE2_619.3044_Hz float 1
LOOKUP_TABLE default
0.02667832639425423
0.0
0.00027042069938373756
0.026699083007919962
0.051226201980524154
0.07359708701882048
0.09382103666866715
0.11191006164382647
0.12787948854935227
0.14174868299595036
0.15354173192877954
0.16328807272750234
0.17102307352289706
0.17678857506283804
0.1806334097950444
0.1826139209232872
0.18279451462093835
0.18124829451165347
0.1780578524601111
0.17331632962095828
0.1671289269340401
0.1596151531053225
0.15091228306524565
0.14118081837980806
0.13061329096678734
0.11944868054755584
0.10799616053171027
0.09667354918822504
0.08606517552256139
0.07699038186628254
0.07052139906996478
0.0677930767341908
0.069501413157734
0.07546310527553234
0.0847864704938791
0.09641173806822753
0.10945160536274122
0.12325377272168135
0.13735162014845098
0.15140445605845224
0.16515386844506685
0.17839589591397076
0.19096401355270906
0.2027188105813003
0.21354169713990498
0.22333103645466829
0.23199975169910012
0.23947384093246493
0.24569145754367722
0.2506023455246499
0.25416749795121163
0.2563589555978672
0.25715969339290257
0.2565635628299336
0.2545752729356508
0.25121040379507276
0.24649545700115738
0.24046795850898092
0.23317664320751727
0.224681769745335
0.21505564287344375
0.2043834655890343
0.19276471631338998
0.18031536755705324
0.16717146778713352
0.15349495947738576
0.13948320450631146
0.1253846671393985
0.11152460413669278
0.09834571135528687
0.08646546035877668
0.07673032312149616
0.07018092003459671
0.06776358520223974
0.0697975269831806
0.07570959356788932
0.08439972464774075
0.09476895026186898
0.10595814165819112
0.11735092830459416
0.1285076113813822
0.13910468075092816
0.14889365925404818
0.15767548617693478
0.16528493749394357
0.17158112105142395
0.17644159358226474
0.17975864487127408
0.18143689083568149
0.18139166359648984
0.17954788762881996
0.17583924915808627
0.17020753655747473
0.16260207255394285
0.15297918586723497
0.1413016869830855
0.12753832390979083
0.11166320132919325
0.09365515225078395
0.07349705764895377
0.05117512820322159

