# vtk DataFile Version 2.0
mesh vtk view
ASCII
DATASET UNSTRUCTURED_GRID
POINTS 101 double
-0.0031930857278814192 0.0 0.0
2.0 0.0 0.0
0.0199999999999621 -3.236621604239361e-05 0.0
0.036806914272072215 -0.00012598214446902153 0.0
0.05387501720835762 -0.00027562522208302297 0.0
0.07120415823787198 -0.0004760780326333041 0.0
0.08879395547843058 -0.0007221339654702897 0.0
0.10664369414712438 -0.0010086048068366142 0.0
0.12475223488283739 -0.0013303300658060017 0.0
0.1431179319530332 -0.0016821878375936745 0.0
0.16173856130097716 -0.0020591070080263393 0.0
0.18061125837032824 -0.002456080604435477 0.0
0.19973246562210556 -0.002868180100176597 0.0
0.21909788963475005 -0.0032905704824232537 0.0
0.23870246765169842 -0.003718525895872964 0.0
0.25854034341296944 -0.004147445678563371 0.0
0.2786048520780185 -0.004572870610149577 0.0
0.29888851401702166 -0.0049904991977577536 0.0
0.3193830372170795 -0.00539620382991132 0.0
0.34007932801882973 -0.005786046635022501 0.0
0.3609675098681761 -0.006156294887554576 0.0
0.38203694973736374 -0.006503435812174052 0.0
0.40327629183989044 -0.0068241906440112765 0.0
0.4246734982350617 -0.007115527811508677 0.0
0.44621589589051297 -0.007374675117231234 0.0
0.4678902297451346 -0.00759913080140953 0.0
0.4896827212907062 -0.007786673382843837 0.0
0.5115791321684592 -0.007935370182076395 0.0
0.5335648322568922 -0.008043584442390936 0.0
0.5556248717097151 -0.008109980975174546 0.0
0.577744056387912 -0.008133530267422917 0.0
0.5999070261177858 -0.008113511000630562 0.0
0.622098335197556 -0.00804951094192428 0.0
0.6443025345687962 -0.007941426180009675 0.0
0.6665042550657472 -0.007789458690246653 0.0
0.6886882911554248 -0.0075941122248859745 0.0
0.7108396845844793 -0.007356186536123158 0.0
0.7329438073549913 -0.007076769951093402 0.0
0.7549864434607816 -0.006757230329179471 0.0
0.7769538688283795 -0.006399204442969983 0.0
0.7988329289224395 -0.006004585834827943 0.0
0.8206111134941031 -0.005575511211247684 0.0
0.8422766279724362 -0.005114345446935668 0.0
0.8638184610235656 -0.004623665279790407 0.0
0.8852264478293342 -0.004106241786627085 0.0
0.9064913286670514 -0.00356502173754293 0.0
0.9276048024040925 -0.0030031079342040697 0.0
0.9485595745554838 -0.0024237386440107435 0.0
0.9693493995890461 -0.001830266248026681 0.0
0.9899691172009141 -0.0012261352257059701 0.0
1.0104146823241094 -0.000614859603786993 0.0
1.0306831886741086 -2.2169226259883423e-13 0.0
1.050772885677655 0.0006148596033466017 0.0
1.0706831886742842 0.001226135225271719 0.0
1.0904146823243903 0.0018302662476002653 0.0
1.1099691172012742 0.002423738643593753 0.0
1.129349399589482 0.0030031079337980277 0.0
1.1485595745559902 0.003565021737149204 0.0
1.167604802404664 0.004106241786246902 0.0
1.186491328667682 0.004623665279424856 0.0
1.2052264478300156 0.005114345446585655 0.0
1.2238184610242926 0.005575511210914018 0.0
1.2422766279732014 0.006004585834511242 0.0
1.2606111134948985 0.006399204442670702 0.0
1.278832928923259 0.006757230328897938 0.0
1.296953868829216 0.007076769950829779 0.0
1.314986443461628 0.0073561865358774525 0.0
1.3329438073558395 0.007594112224658049 0.0
1.3508396845853234 0.00778945869003624 0.0
1.3686882911562583 0.007941426179816378 0.0
1.3865042550665654 0.008049510941747608 0.0
1.404302534569593 0.008113511000469916 0.0
1.4220983351983278 0.008133530267277624 0.0
1.4399070261185285 0.008109980975043866 0.0
1.4577440563886237 0.008043584442274085 0.0
1.4756248717103924 0.00793537018197258 0.0
1.493564832257535 0.007786673382752225 0.0
1.511579132169065 0.007599130801329258 0.0
1.5296827212912742 0.007374675117161439 0.0
1.5478902297456627 0.0071155278114484995 0.0
1.5662158958910026 0.0068241906439598715 0.0
1.5846734982355126 0.006503435812130601 0.0
1.6032762918403038 0.006156294887518284 0.0
1.6220369497377387 0.005786046634992628 0.0
1.640967509868514 0.005396203829887093 0.0
1.6600793280191308 0.004990499197738501 0.0
1.6793830372173466 0.004572870610134645 0.0
1.6988885140172534 0.004147445678552149 0.0
1.7186048520782145 0.0037185258958648743 0.0
1.738540343413133 0.003290570482418048 0.0
1.7587024676518341 0.0028681801001740385 0.0
1.7790978896348666 0.002456080604435111 0.0
1.7997324656222133 0.0020591070080276243 0.0
1.820611258370429 0.0016821878375961226 0.0
1.841738561301072 0.0013303300658091526 0.0
1.8631179319531221 0.001008604806840001 0.0
1.8847522348829227 0.0007221339654734647 0.0
1.9066436941472038 0.0004760780326359925 0.0
1.9287939554784992 0.0002756252220850589 0.0
1.9512041582379285 0.00012598214447030642 0.0
1.973875017208406 3.236621604283492e-05 0.0

CELLS 100 300
2 0 2
2 2 3
2 3 4
2 4 5
2 5 6
2 6 7
2 7 8
2 8 9
2 9 10
2 10 11
2 11 12
2 12 13
2 13 14
2 14 15
2 15 16
2 16 17
2 17 18
2 18 19
2 19 20
2 20 21
2 21 22
2 22 23
2 23 24
2 24 25
2 25 26
2 26 27
2 27 28
2 28 29
2 29 30
2 30 31
2 31 32
2 32 33
2 33 34
2 34 35
2 35 36
2 36 37
2 37 38
2 38 39
2 39 40
2 40 41
2 41 42
2 42 43
2 43 44
2 44 45
2 45 46
2 46 47
2 47 48
2 48 49
2 49 50
2 50 51
2 51 52
2 52 53
2 53 54
2 54 55
2 55 56
2 56 57
2 57 58
2 58 59
2 59 60
2 60 61
2 61 62
2 62 63
2 63 64
2 64 65
2 65 66
2 66 67
2 67 68
2 68 69
2 69 70
2 70 71
2 71 72
2 72 73
2 73 74
2 74 75
2 75 76
2 76 77
2 77 78
2 78 79
2 79 80
2 80 81
2 81 82
2 82 83
2 83 84
2 84 85
2 85 86
2 86 87
2 87 88
2 88 89
2 89 90
2 90 91
2 91 92
2 92 93
2 93 94
2 94 95
2 95 96
2 96 97
2 97 98
2 98 99
2 99 100
2 100 1

CELL_TYPES 100
3
3
3
3
3
3
3
3
3
3
3
3
3
3
3
3
3
3
3
3
3
3
3
3
3
3
3
3
3
3
3
3
3
3
3
3
3
3
3
3
3
3
3
3
3
3
3
3
3
3
3
3
3
3
3
3
3
3
3
3
3
3
3
3
3
3
3
3
3
3
3
3
3
3
3
3
3
3
3
3
3
3
3
3
3
3
3
3
3
3
3
3
3
3
3
3
3
3
3
3

POINT_DATA 101
SCALARS MODE2_619.3044_Hz float 1
LOOKUP_TABLE default
0.02667832639425423
0.0
0.00027042069938373756
0.026699083007919962
0.051226201980524154
0.07359708701882048
0.09382103666866715
0.11191006164382647
0.12787948854935227
0.14174868299595036
0.15354173192877954
0.16328807272750234
0.17102307352289706
0.17678857506283804
0.1806334097950444
0.1826139209232872
0.18279451462093835
0.18124829451165347
0.1780578524601111
0.17331632962095828
0.1671289269340401
0.1596151531053225
0.15091228306524565
0.14118081837980806
0.13061329096678734
0.11944868054755584
0.10799616053171027
0.09667354918822504
0.08606517552256139
0.07699038186628254
0.07052139906996478
0.0677930767341908
0.069501413157734
0.07546310527553234
0.0847864704938791
0.09641173806822753
0.10945160536274122
0.12325377272168135
0.13735162014845098
0.15140445605845224
0.16515386844506685
0.17839589591397076
0.19096401355270906
0.2027188105813003
0.21354169713990498
0.22333103645466829
0.23199975169910012
0.23947384093246493
0.24569145754367722
0.2506023455246499
0.25416749795121163
0.2563589555978672
0.25715969339290257
0.2565635628299336
0.2545752729356508
0.25121040379507276
0.24649545700115738
0.24046795850898092
0.23317664320751727
0.224681769745335
0.21505564287344375
0.2043834655890343
0.19276471631338998
0.18031536755705324
0.16717146778713352
0.15349495947738576
0.13948320450631146
0.1253846671393985
0.11152460413669278
0.09834571135528687
0.08646546035877668
0.07673032312149616
0.07018092003459671
0.06776358520223974
0.0697975269831806
0.07570959356788932
0.08439972464774075
0.09476895026186898
0.10595814165819112
0.11735092830459416
0.1285076113813822
0.13910468075092816
0.14889365925404818
0.15767548617693478
0.16528493749394357
0.17158112105142395
0.17644159358226474
0.17975864487127408
0.18143689083568149
0.18139166359648984
0.17954788762881996
0.17583924915808627
0.17020753655747473
0.16260207255394285
0.15297918586723497
0.1413016869830855
0.12753832390979083
0.11166320132919325
0.09365515225078395
0.07349705764895377
0.05117512820322159

