# vtk DataFile Version 2.0
mesh vtk view
ASCII
DATASET UNSTRUCTURED_GRID
POINTS 101 double
-0.0001681566915726548 0.0 0.0
2.0 0.0 0.0
0.0199999999999621 1.6949012174242925e-06 0.0
0.04016815669148278 6.672931491691571e-06 0.0
0.060328312985401346 1.4774091270275581e-05 0.0
0.08048046992887138 2.5838417008452165e-05 0.0
0.10062463020579604 3.970602158735618e-05 0.0
0.12076079889846819 5.621714956461301e-05 0.0
0.14088898420918805 7.521224645728142e-05 0.0
0.16100919814187326 9.653204125747834e-05 0.0
0.18112145714372208 0.00012001764138210185 0.0
0.20122578270698246 0.00014551063925947558 0.0
0.22132220193089333 0.0001728532297576257 0.0
0.24141074804392174 0.00020188833766136835 0.0
0.26149146088642317 0.00023245975440838954 0.0
0.2815643873539241 0.00026441228329822754 0.0
0.3016295818011796 0.0002975918923922732 0.0
0.3216871064072446 0.00033184587432805786 0.0
0.3417370315018712 0.00036702301227700674 0.0
0.3617794358535169 0.0004029737512813576 0.0
0.3818144069193185 0.0004395503742134434 0.0
0.40184204105742344 0.000476607181608869 0.0
0.42186244370212506 0.0005140006746343338 0.0
0.4418757295022759 0.0005515897404609121 0.0
0.46188202242351173 0.0005892358393246535 0.0
0.48188145581485964 0.0006268031925682958 0.0
0.5018741724403482 0.0006641589709707677 0.0
0.5218603244762912 0.000701173482684983 0.0
0.5418400734749564 0.0007377203601191803 0.0
0.5618135902953828 0.0007736767451127849 0.0
0.5817810550021528 0.0008089234717743837 0.0
0.6017426567329786 0.00084334524636699 0.0
0.6216985935359992 0.0008768308236442462 0.0
0.6416490721777379 0.0009092731790605887 0.0
0.6615943079227106 0.0009405696762986747 0.0
0.6815345242857188 0.0009706222295784727 0.0
0.7014699527579068 0.0009993374602343987 0.0
0.7214008325076989 0.0010266268470696465 0.0
0.7413274100577772 0.0010524068700204104 0.0
0.7612499389392969 0.001076599146687032 0.0
0.7811686793245706 0.0010991305613140933 0.0
0.8010838976394931 0.0011199333858272177 0.0
0.8209958661570084 0.0011389453925606966 0.0
0.8409048625729489 0.0011561099583370003 0.0
0.8608111695656144 0.0011713761595867872 0.0
0.8807150743404759 0.0011846988582260333 0.0
0.9006168681614225 0.0011960387780354722 0.0
0.9205168458699864 0.001205362571316444 0.0
0.9404153053940039 0.001212642875626621 0.0
0.9603125472471886 0.0012178583604287227 0.0
0.9802088740211068 0.0012209937635152914 0.0
1.000104589871082 0.0012220399171027996 0.0
1.0199999999975 0.0012209937635186798 0.0
1.0398954101239393 0.0012178583604354552 0.0
1.0597911259740018 0.0012126428756366319 0.0
1.0796874527480271 0.0012053625713296465 0.0
1.0995846946013188 0.0011960387780517575 0.0
1.1194831541254424 0.001184698858245274 0.0
1.1393831318341114 0.0011713761596088361 0.0
1.1592849256551623 0.0011561099583616947 0.0
1.1791888304301261 0.0011389453925878586 0.0
1.1990951374228942 0.0011199333858566524 0.0
1.2190041338389366 0.0010991305613455966 0.0
1.238916102356552 0.0010765991467203903 0.0
1.2588313206715758 0.001052406870055398 0.0
1.27875006105695 0.001026626847106035 0.0
1.2986725899385696 0.0009993374602719543 0.0
1.318599167488747 0.000970622229616958 0.0
1.3385300472386388 0.0009405696763378472 0.0
1.3584654757109265 0.0009092731791002102 0.0
1.3784056920740346 0.0008768308236840822 0.0
1.3983509278191062 0.0008433452464068113 0.0
1.4183014064609454 0.0008089234718139639 0.0
1.4382573432640664 0.0007736767451519093 0.0
1.4582189449949936 0.0007377203601576445 0.0
1.4781864097018642 0.0007011734827225983 0.0
1.4981599265223928 0.0006641589710073541 0.0
1.518139675521161 0.0006268031926036871 0.0
1.5381258275572076 0.000589235839358699 0.0
1.5581185441827994 0.0005515897404934778 0.0
1.5781179775742522 0.0005140006746652976 0.0
1.5981242704955938 0.0004766071816381293 0.0
1.6181375562958513 0.00043955037424091384 0.0
1.6381579589406592 0.00040297375130697144 0.0
1.6581855930788725 0.00036702301230070897 0.0
1.678220564144783 0.0003318458743498162 0.0
1.698262968496539 0.00029759189241207234 0.0
1.718312893591275 0.0002644122833160696 0.0
1.7383704181974515 0.00023245975442429234 0.0
1.7584356126448193 0.00020188833767538475 0.0
1.7785085391124316 0.0001728532297698213 0.0
1.7985892519550317 0.0001455106392699139 0.0
1.8186777980681488 0.00012001764139085689 0.0
1.838774217292147 9.653204126464336e-05 0.0
1.8588785428554957 7.521224646296672e-05 0.0
1.8789908018574326 5.6217149568944145e-05 0.0
1.8991110157902078 3.970602159047563e-05 0.0
1.919239201101024 2.5838417010527762e-05 0.0
1.9393753697938003 1.4774091271496747e-05 0.0
1.9595195300708306 6.672931492266704e-06 0.0
1.979671687014406 1.6949012175776338e-06 0.0

CELLS 100 300
2 0 2
2 2 3
2 3 4
2 4 5
2 5 6
2 6 7
2 7 8
2 8 9
2 9 10
2 10 11
2 11 12
2 12 13
2 13 14
2 14 15
2 15 16
2 16 17
2 17 18
2 18 19
2 19 20
2 20 21
2 21 22
2 22 23
2 23 24
2 24 25
2 25 26
2 26 27
2 27 28
2 28 29
2 29 30
2 30 31
2 31 32
2 32 33
2 33 34
2 34 35
2 35 36
2 36 37
2 37 38
2 38 39
2 39 40
2 40 41
2 41 42
2 42 43
2 43 44
2 44 45
2 45 46
2 46 47
2 47 48
2 48 49
2 49 50
2 50 51
2 51 52
2 52 53
2 53 54
2 54 55
2 55 56
2 56 57
2 57 58
2 58 59
2 59 60
2 60 61
2 61 62
2 62 63
2 63 64
2 64 65
2 65 66
2 66 67
2 67 68
2 68 69
2 69 70
2 70 71
2 71 72
2 72 73
2 73 74
2 74 75
2 75 76
2 76 77
2 77 78
2 78 79
2 79 80
2 80 81
2 81 82
2 82 83
2 83 84
2 84 85
2 85 86
2 86 87
2 87 88
2 88 89
2 89 90
2 90 91
2 91 92
2 92 93
2 93 94
2 94 95
2 95 96
2 96 97
2 97 98
2 98 99
2 99 100
2 100 1

CELL_TYPES 100
3
3
3
3
3
3
3
3
3
3
3
3
3
3
3
3
3
3
3
3
3
3
3
3
3
3
3
3
3
3
3
3
3
3
3
3
3
3
3
3
3
3
3
3
3
3
3
3
3
3
3
3
3
3
3
3
3
3
3
3
3
3
3
3
3
3
3
3
3
3
3
3
3
3
3
3
3
3
3
3
3
3
3
3
3
3
3
3
3
3
3
3
3
3
3
3
3
3
3
3

POINT_DATA 101
SCALARS MODE1_224.6674_Hz float 1
LOOKUP_TABLE default
0.009839986425673726
0.0
9.918014452078463e-05
0.009847731018820213
0.01923125756797109
0.028156174108291288
0.03662511581195344
0.04464086832166672
0.05220633260853886
0.05932455773784835
0.06599878065283044
0.07223246627141555
0.07802934662242618
0.08339345874820135
0.08832918136445082
0.09284127036458886
0.09693489330658514
0.1006156630592228
0.10388967082205085
0.10676351877379067
0.10924435264962298
0.11133989460088535
0.11305847675240305
0.1144090759440515
0.11540135022666352
0.11604567777848339
0.11635319901867203
0.11633586281913487
0.1160064778546191
0.11537877028068476
0.11446744908360029
0.11328828059331075
0.11185817376935578
0.11019527792462196
0.10831909448671911
0.10625060412339407
0.10401240994341089
0.10162889633141185
0.09912640100617437
0.09653339472872755
0.09388065825194737
0.09120143905313122
0.08853156063396189
0.08590944452592082
0.08337599020785583
0.0809742430539394
0.07874876974297221
0.07674466192433503
0.0750061125953192
0.07357456543914814
0.07248652832715803
0.07177125602346147
0.07144861109297575
0.07152745916654862
0.072004905593091
0.07286653094130174
0.07408757674419217
0.0756348444580956
0.07746896438320602
0.07954668951337497
0.08182294861189174
0.0842525068231606
0.08679118850547911
0.08939669236272023
0.09202906909452273
0.09465094384422962
0.0972275603450378
0.09972671012242354
0.1021185946218455
0.10437565403648802
0.10647238523386
0.10838516268797715
0.11009207034340475
0.1115727483279264
0.11280825586717572
0.11378095020178268
0.11447438043331067
0.11487319479053339
0.11496305964658883
0.11473058861955157
0.11416328018151457
0.11324946233889582
0.11197824310113592
0.11033946561003373
0.10832366694849219
0.10592203978109833
0.103126396098001
0.0999291324380022
0.0963231960575097
0.09230205159027571
0.08785964781016664
0.0829903841671253
0.07768907681659548
0.0719509239068135
0.06577146992904184
0.05914656897777699
0.052072346822797856
0.04454516179784075
0.03656156479196276
0.0281182596948488
0.019212071430569067

