# vtk DataFile Version 2.0
mesh vtk view
ASCII
DATASET UNSTRUCTURED_GRID
POINTS 101 double
0.0011770968410085843 0.0 0.0
2.0 0.0 0.0
0.0199999999999621 -1.1864308521970053e-05 0.0
0.03882290315901683 -4.671052044184103e-05 0.0
0.05770180910127711 -0.00010341863889192913 0.0
0.07663671049664679 -0.00018086891905916527 0.0
0.09562758855781797 -0.0002779421511114934 0.0
0.1146744077087714 -0.0003935200469522913 0.0
0.13377711053344588 -0.0005264857252009703 0.0
0.15293561300440317 -0.0006757242888023487 0.0
0.17214979999121666 -0.0008401234896747134 0.0
0.19141952104814916 -0.0010185744748163297 0.0
0.21074458648052755 -0.0012099726083033807 0.0
0.23012476368906848 -0.0014132183636295793 0.0
0.24955977379120187 -0.0016272182808587277 0.0
0.2690492885182443 -0.0018508859830875938 0.0
0.28859292738698844 -0.002083143246745913 0.0
0.30819025514406617 -0.0023229211202964064 0.0
0.3278407794812137 -0.0025691610859390488 0.0
0.34754394901922575 -0.0028208162589695046 0.0
0.3672991515581483 -0.0030768526194941055 0.0
0.3871057125909462 -0.0033362502712620846 0.0
0.406962894077568 -0.0035980047224403386 0.0
0.4268698934760456 -0.003861128183226387 0.0
0.4468258430269268 -0.004124650875272577 0.0
0.466829809287025 -0.004387622347978073 0.0
0.4868807929081379 -0.004649112796795377 0.0
0.5069777286560694 -0.0049082143787948845 0.0
0.5271194856649452 -0.005164042520834265 0.0
0.5473048679214947 -0.005415737215789498 0.0
0.5675326149736375 -0.005662464302420689 0.0
0.5878014028573894 -0.005903416724568933 0.0
0.608109845235778 -0.006137815765509726 0.0
0.62845649474314 -0.006364912253424124 0.0
0.6488398445278649 -0.006583987734090727 0.0
0.6692583299863402 -0.006794355607049313 0.0
0.6897103306805565 -0.006995362221640795 0.0
0.7101941724315449 -0.00718638792948753 0.0
0.7307081295805292 -0.007366848090142876 0.0
0.7512504274094253 -0.007536194026809228 0.0
0.7718192447120433 -0.007693913929198657 0.0
0.7924127165071174 -0.007839533700790529 0.0
0.8130289368840432 -0.00797261774792488 0.0
0.8336659619719923 -0.008092769708359007 0.0
0.8543218130228678 -0.008199633117107514 0.0
0.8749944795983705 -0.008292892007582238 0.0
0.895681922851277 -0.00837227144624831 0.0
0.9163820788908624 -0.008437537999215114 0.0
0.9370928622222724 -0.008488500129386352 0.0
0.9578121692495133 -0.008525008523001063 0.0
0.9785378818316193 -0.008546956344607044 0.0
0.9992678708814994 -0.0085542794197196 0.0
1.0199999999968203 -0.008546956344630765 0.0
1.0407321291121694 -0.00852500852304819 0.0
1.0614621181621542 -0.00848850012945643 0.0
1.0821878307443928 -0.008437537999307531 0.0
1.1029071377717756 -0.008372271446362307 0.0
1.123617921103335 -0.008292892007716922 0.0
1.1443180771430757 -0.008199633117261858 0.0
1.1650055203961436 -0.008092769708531868 0.0
1.1856781869718134 -0.007972617748115014 0.0
1.2063340380228618 -0.007839533700996573 0.0
1.2269710631109882 -0.007693913929419181 0.0
1.2475872834880946 -0.0075361940270427365 0.0
1.2681807552833537 -0.007366848090387791 0.0
1.2887495725861593 -0.007186387929742249 0.0
1.3092918704152448 -0.006995362221903684 0.0
1.3298058275644193 -0.00679435560731871 0.0
1.3502896693156003 -0.006583987734364935 0.0
1.37074167001001 -0.006364912253701474 0.0
1.391160155468677 -0.006137815765788579 0.0
1.4115435052535916 -0.005903416724847683 0.0
1.4318901547611427 -0.00566246430269775 0.0
1.4521985971397182 -0.005415737216063368 0.0
1.4724673850236534 -0.005164042521103514 0.0
1.4926951320759745 -0.00490821437905819 0.0
1.5128805143326989 -0.004649112797051482 0.0
1.5330222713417454 -0.004387622348225813 0.0
1.5531192070898434 -0.004124650875510895 0.0
1.5731701907111169 -0.0038611281834543473 0.0
1.593174156971371 -0.0035980047226570858 0.0
1.6131301065224029 -0.003336250271466907 0.0
1.6330371059210251 -0.0030768526196863987 0.0
1.6528942874077852 -0.0028208162591488017 0.0
1.672700848440717 -0.0025691610861049642 0.0
1.6924560509797675 -0.0023229211204487143 0.0
1.7121592205179006 -0.0020831432468845076 0.0
1.7318097448551626 -0.0018508859832124885 0.0
1.7514070726123516 -0.0016272182809700473 0.0
1.7709507114812006 -0.0014132183637276942 0.0
1.79044022620834 -0.0012099726083887499 0.0
1.809875236310554 -0.001018574474889398 0.0
1.8292554135191599 -0.0008401234897359987 0.0
1.848580478951595 -0.0006757242888525039 0.0
1.8678502000085788 -0.0005264857252407673 0.0
1.887064386995436 -0.0003935200469826092 0.0
1.9062228894664321 -0.0002779421511333296 0.0
1.9253255922911439 -0.00018086891907369445 0.0
1.944372411442135 -0.00010341863890047729 0.0
1.9633632895033384 -4.671052044586695e-05 0.0
1.9822981908987332 -1.1864308523043444e-05 0.0

CELLS 100 300
2 0 2
2 2 3
2 3 4
2 4 5
2 5 6
2 6 7
2 7 8
2 8 9
2 9 10
2 10 11
2 11 12
2 12 13
2 13 14
2 14 15
2 15 16
2 16 17
2 17 18
2 18 19
2 19 20
2 20 21
2 21 22
2 22 23
2 23 24
2 24 25
2 25 26
2 26 27
2 27 28
2 28 29
2 29 30
2 30 31
2 31 32
2 32 33
2 33 34
2 34 35
2 35 36
2 36 37
2 37 38
2 38 39
2 39 40
2 40 41
2 41 42
2 42 43
2 43 44
2 44 45
2 45 46
2 46 47
2 47 48
2 48 49
2 49 50
2 50 51
2 51 52
2 52 53
2 53 54
2 54 55
2 55 56
2 56 57
2 57 58
2 58 59
2 59 60
2 60 61
2 61 62
2 62 63
2 63 64
2 64 65
2 65 66
2 66 67
2 67 68
2 68 69
2 69 70
2 70 71
2 71 72
2 72 73
2 73 74
2 74 75
2 75 76
2 76 77
2 77 78
2 78 79
2 79 80
2 80 81
2 81 82
2 82 83
2 83 84
2 84 85
2 85 86
2 86 87
2 87 88
2 88 89
2 89 90
2 90 91
2 91 92
2 92 93
2 93 94
2 94 95
2 95 96
2 96 97
2 97 98
2 98 99
2 99 100
2 100 1

CELL_TYPES 100
3
3
3
3
3
3
3
3
3
3
3
3
3
3
3
3
3
3
3
3
3
3
3
3
3
3
3
3
3
3
3
3
3
3
3
3
3
3
3
3
3
3
3
3
3
3
3
3
3
3
3
3
3
3
3
3
3
3
3
3
3
3
3
3
3
3
3
3
3
3
3
3
3
3
3
3
3
3
3
3
3
3
3
3
3
3
3
3
3
3
3
3
3
3
3
3
3
3
3
3

POINT_DATA 101
SCALARS MODE1_224.6674_Hz float 1
LOOKUP_TABLE default
0.009839986425673726
0.0
9.918014452078463e-05
0.009847731018820213
0.01923125756797109
0.028156174108291288
0.03662511581195344
0.04464086832166672
0.05220633260853886
0.05932455773784835
0.06599878065283044
0.07223246627141555
0.07802934662242618
0.08339345874820135
0.08832918136445082
0.09284127036458886
0.09693489330658514
0.1006156630592228
0.10388967082205085
0.10676351877379067
0.10924435264962298
0.11133989460088535
0.11305847675240305
0.1144090759440515
0.11540135022666352
0.11604567777848339
0.11635319901867203
0.11633586281913487
0.1160064778546191
0.11537877028068476
0.11446744908360029
0.11328828059331075
0.11185817376935578
0.11019527792462196
0.10831909448671911
0.10625060412339407
0.10401240994341089
0.10162889633141185
0.09912640100617437
0.09653339472872755
0.09388065825194737
0.09120143905313122
0.08853156063396189
0.08590944452592082
0.08337599020785583
0.0809742430539394
0.07874876974297221
0.07674466192433503
0.0750061125953192
0.07357456543914814
0.07248652832715803
0.07177125602346147
0.07144861109297575
0.07152745916654862
0.072004905593091
0.07286653094130174
0.07408757674419217
0.0756348444580956
0.07746896438320602
0.07954668951337497
0.08182294861189174
0.0842525068231606
0.08679118850547911
0.08939669236272023
0.09202906909452273
0.09465094384422962
0.0972275603450378
0.09972671012242354
0.1021185946218455
0.10437565403648802
0.10647238523386
0.10838516268797715
0.11009207034340475
0.1115727483279264
0.11280825586717572
0.11378095020178268
0.11447438043331067
0.11487319479053339
0.11496305964658883
0.11473058861955157
0.11416328018151457
0.11324946233889582
0.11197824310113592
0.11033946561003373
0.10832366694849219
0.10592203978109833
0.103126396098001
0.0999291324380022
0.0963231960575097
0.09230205159027571
0.08785964781016664
0.0829903841671253
0.07768907681659548
0.0719509239068135
0.06577146992904184
0.05914656897777699
0.052072346822797856
0.04454516179784075
0.03656156479196276
0.0281182596948488
0.019212071430569067

