# vtk DataFile Version 2.0
mesh vtk view
ASCII
DATASET UNSTRUCTURED_GRID
POINTS 150 double
0.0 0.0 0.0
1002.6965339089804 12.99985074007958 0.0
0.0 1002.6881805763876 0.0
20.053930678169504 0.009401122064343502 0.0
40.10786135633713 0.03726153464363539 0.0
60.16179203449657 0.08306680731725044 0.0
80.2157227126763 0.14630250966466615 0.0
100.26965339086333 0.2264542112652719 0.0
120.32358406904929 0.3230074816984357 0.0
140.37751474720022 0.43544789054334476 0.0
160.43144542533017 0.5632610073794052 0.0
180.48537610346017 0.7059324017861093 0.0
200.53930678159026 0.8629476433428365 0.0
220.59323745972023 1.0337923016289625 0.0
240.64716813785017 1.2179519462238682 0.0
260.7010988159975 1.4149121467071084 0.0
280.7550294941846 1.6241584726583327 0.0
300.80896017237166 1.8451764936565387 0.0
320.86289085055876 2.0774517792811142 0.0
340.91682152874574 2.320469899111442 0.0
360.9707522069327 2.5737164227269096 0.0
381.02468288511966 2.836676919706916 0.0
401.07861356330676 3.1088369596308585 0.0
421.13254424149375 3.3896821120781255 0.0
441.1864749196808 3.678697946628121 0.0
461.24040559786766 3.9753700328602415 0.0
481.2943362760547 4.279183940353886 0.0
501.3482669542529 4.589625238688633 0.0
521.4021976324955 4.90617949744443 0.0
541.4561283106823 5.228332286199102 0.0
561.5100589888692 5.555569174532913 0.0
581.5639896670561 5.887375732025262 0.0
601.617920345243 6.223237528255554 0.0
621.6718510234298 6.5626401328032 0.0
641.7257817016167 6.905069115247587 0.0
661.7797123798035 7.250010045168098 0.0
681.8336430579905 7.59694849214413 0.0
701.8875737361773 7.94537002575506 0.0
721.9415044143641 8.29476021558027 0.0
741.995435092551 8.64460463119915 0.0
762.049365770738 8.994388842191062 0.0
782.1032964489249 9.343598418135379 0.0
802.1572271271117 9.691718928611463 0.0
822.2111578052985 10.038235943198684 0.0
842.2650884834854 10.382635031476442 0.0
862.3190191616724 10.72440176302408 0.0
882.3729498398591 11.063021707420942 0.0
902.426880518046 11.397980434246389 0.0
922.4808111962328 11.728763513079771 0.0
942.5347418744198 12.054856513500443 0.0
962.5886725526066 12.375745005087738 0.0
982.6426032307935 12.690914557420998 0.0
982.4717834638127 32.62279756980605 0.0
962.2564246375849 52.255136018470616 0.0
942.0503062188283 71.89671487459833 0.0
921.8532769960566 91.54738292673107 0.0
901.6651857578044 111.20698896339063 0.0
881.4858812926038 130.87538177310094 0.0
861.3152123890001 150.55241014437323 0.0
841.1530278355141 170.23792286574263 0.0
820.9991764206634 189.9317687257472 0.0
800.8535069329762 209.6337965129152 0.0
780.7158681609803 229.34385501577447 0.0
760.5861088932039 249.06179302285318 0.0
740.4640779181661 268.7874593226877 0.0
720.3496240243841 288.5207027038173 0.0
700.2425960004056 308.26137195475036 0.0
680.1428426347585 328.009315864015 0.0
660.0502127159712 347.76438322013905 0.0
639.9645550325712 367.5264228116507 0.0
619.8857183730869 387.2952834270779 0.0
599.8135515260462 407.0708138549487 0.0
579.7479032799772 426.85286288379115 0.0
559.6886224234077 446.64127930213334 0.0
539.6355577448658 466.435911898503 0.0
519.5885580328797 486.2366094614283 0.0
499.54747207596614 506.0432207794485 0.0
479.51214866261955 525.8555946411244 0.0
459.48243658146845 545.6735798348849 0.0
439.4581846209847 565.4970251493133 0.0
419.43924156969683 585.3257793729373 0.0
399.4254562161326 605.1596912942849 0.0
379.4166773488203 624.9986097018841 0.0
359.4127537562876 644.8423833842631 0.0
339.4135342270628 664.6908611299499 0.0
319.4188675496736 684.5438917274726 0.0
299.42860251264835 704.4013239653591 0.0
279.44258790451494 724.2630066321375 0.0
259.4606725138015 744.1287885163358 0.0
239.48270512903605 763.9985184064822 0.0
219.50853453874674 783.8720450911044 0.0
199.53800953146126 803.7492173587308 0.0
179.5709788957079 823.6298839978892 0.0
159.60729142001463 843.5138937971079 0.0
139.64679589290978 863.4010955449146 0.0
119.68934110292088 883.2913380298378 0.0
99.73477583857645 903.184470040405 0.0
79.78294888840432 923.0803403651447 0.0
59.83370904093254 942.9787977925847 0.0
39.88690508468919 962.8796911112531 0.0
19.942385808202438 982.7828691096779 0.0
0.016827015147189768 982.6344169648612 0.0
0.03229441307716734 962.5806533533347 0.0
0.04644424380695843 942.5268897418083 0.0
0.059318557353589076 922.4731261302818 0.0
0.07095940373408512 902.4193625187554 0.0
0.08140883296547252 882.3655989072289 0.0
0.09070889506477699 862.3118352957025 0.0
0.0989016400490246 842.2580716841761 0.0
0.10602911793524161 822.2043080726496 0.0
0.1121333787404541 802.1505444611232 0.0
0.11725647248168851 782.0967808495968 0.0
0.12144044917597142 762.0430172380705 0.0
0.12472735884032939 741.9892536265442 0.0
0.12715925149178908 721.9354900150176 0.0
0.12877817714737735 701.8817264034913 0.0
0.12962618582412133 681.8279627919649 0.0
0.1297453275390483 661.7741991804384 0.0
0.12917765230918582 641.720435568912 0.0
0.12796521015156165 621.6666719573856 0.0
0.1261500510832035 601.6129083458592 0.0
0.12377422512113939 581.5591447343328 0.0
0.12087978228239726 561.5053811228064 0.0
0.11750877258400523 541.45161751128 0.0
0.11370324604299151 521.3978538997536 0.0
0.10950525267638188 501.34409028821597 0.0
0.10495684250119604 481.29032667663404 0.0
0.10010006553448475 461.2365630651075 0.0
0.09497697179326414 441.1827994535811 0.0
0.08962961129456265 421.12903584205463 0.0
0.08410003405540853 401.07527223052824 0.0
0.07843029009283004 381.0215086190018 0.0
0.07266242942385516 360.96774500747546 0.0
0.06683850206551177 340.913981395949 0.0
0.06100055803482758 320.86021778442256 0.0
0.05519064734883015 300.8064541728962 0.0
0.04945082002454706 280.7526905613699 0.0
0.04382312607900581 260.69892694984344 0.0
0.03834961552923393 240.64516333831688 0.0
0.03307233839225897 220.59139972679054 0.0
0.028033344685108378 200.5376361152641 0.0
0.023274684424809754 180.4838725037378 0.0
0.018838407628390504 160.43010889221136 0.0
0.014766564312878159 140.37634528068483 0.0
0.011101204495300318 120.32258166915848 0.0
0.007884378192684472 100.26881805763203 0.0
0.005158135422058223 80.21505444610575 0.0
0.002964526200449077 60.16129083457926 0.0
0.0013456005448846302 40.107527223052884 0.0
0.00034340847239241513 20.053763611526385 0.0

CELLS 150 450
2 0 3
2 3 4
2 4 5
2 5 6
2 6 7
2 7 8
2 8 9
2 9 10
2 10 11
2 11 12
2 12 13
2 13 14
2 14 15
2 15 16
2 16 17
2 17 18
2 18 19
2 19 20
2 20 21
2 21 22
2 22 23
2 23 24
2 24 25
2 25 26
2 26 27
2 27 28
2 28 29
2 29 30
2 30 31
2 31 32
2 32 33
2 33 34
2 34 35
2 35 36
2 36 37
2 37 38
2 38 39
2 39 40
2 40 41
2 41 42
2 42 43
2 43 44
2 44 45
2 45 46
2 46 47
2 47 48
2 48 49
2 49 50
2 50 51
2 51 1
2 1 52
2 52 53
2 53 54
2 54 55
2 55 56
2 56 57
2 57 58
2 58 59
2 59 60
2 60 61
2 61 62
2 62 63
2 63 64
2 64 65
2 65 66
2 66 67
2 67 68
2 68 69
2 69 70
2 70 71
2 71 72
2 72 73
2 73 74
2 74 75
2 75 76
2 76 77
2 77 78
2 78 79
2 79 80
2 80 81
2 81 82
2 82 83
2 83 84
2 84 85
2 85 86
2 86 87
2 87 88
2 88 89
2 89 90
2 90 91
2 91 92
2 92 93
2 93 94
2 94 95
2 95 96
2 96 97
2 97 98
2 98 99
2 99 100
2 100 2
2 2 101
2 101 102
2 102 103
2 103 104
2 104 105
2 105 106
2 106 107
2 107 108
2 108 109
2 109 110
2 110 111
2 111 112
2 112 113
2 113 114
2 114 115
2 115 116
2 116 117
2 117 118
2 118 119
2 119 120
2 120 121
2 121 122
2 122 123
2 123 124
2 124 125
2 125 126
2 126 127
2 127 128
2 128 129
2 129 130
2 130 131
2 131 132
2 132 133
2 133 134
2 134 135
2 135 136
2 136 137
2 137 138
2 138 139
2 139 140
2 140 141
2 141 142
2 142 143
2 143 144
2 144 145
2 145 146
2 146 147
2 147 148
2 148 149
2 149 0

CELL_TYPES 150
3
3
3
3
3
3
3
3
3
3
3
3
3
3
3
3
3
3
3
3
3
3
3
3
3
3
3
3
3
3
3
3
3
3
3
3
3
3
3
3
3
3
3
3
3
3
3
3
3
3
3
3
3
3
3
3
3
3
3
3
3
3
3
3
3
3
3
3
3
3
3
3
3
3
3
3
3
3
3
3
3
3
3
3
3
3
3
3
3
3
3
3
3
3
3
3
3
3
3
3
3
3
3
3
3
3
3
3
3
3
3
3
3
3
3
3
3
3
3
3
3
3
3
3
3
3
3
3
3
3
3
3
3
3
3
3
3
3
3
3
3
3
3
3
3
3
3
3
3
3

POINT_DATA 150
SCALARS DISPL_X float 1
LOOKUP_TABLE default
0.0
-0.0006291912454287654
0.0
-1.2583824908569192e-05
-2.516764981713721e-05
-3.775147472570008e-05
-5.033529963427567e-05
-6.291912454285583e-05
-7.550294945143532e-05
-8.808677435999282e-05
-0.00010067059926853715
-0.00011325442417708152
-0.00012583824908562593
-0.00013842207399417024
-0.0001510058989027146
-0.0001635897238112698
-0.00017617354871985
-0.00018875737362843012
-0.00020134119853701025
-0.00021392502344559034
-0.00022650884835417033
-0.0002390926732627504
-0.0002516764981713304
-0.0002642603230799103
-0.0002768441479884902
-0.00028942797289707007
-0.00030201179780565
-0.000314595622714237
-0.0003271794476228517
-0.0003397632725314316
-0.00035234709744001144
-0.0003649309223485913
-0.0003775147472571711
-0.0003900985721657509
-0.00040268239707433074
-0.0004152662219829105
-0.0004278500468914903
-0.00044043387180007
-0.00045301769670864965
-0.00046560152161722945
-0.00047818534652580914
-0.0004907691714343889
-0.0005033529963429686
-0.0005159368212515481
-0.0005285206461601278
-0.0005411044710687074
-0.000553688295977287
-0.0005662721208858667
-0.0005788559457944463
-0.0005914397707030261
-0.0006040235956116059
-0.0006166074205201856
-0.000576749474888268
-0.0005264990821002226
-0.00047840478438783445
-0.00043243129907428226
-0.0003885433434827758
-0.0003467056349365399
-0.0003068828907588226
-0.00026903982827282153
-0.00023314116480173215
-0.0001991516176687598
-0.00016703590419711782
-0.00013675874171000814
-0.00010828484753062047
-8.157893898214735e-05
-5.660573338782662e-05
-3.3329948070870446e-05
-1.171630035447851e-05
8.270492438148986e-06
2.6665712983808203e-05
4.35046439592949e-05
5.8822568041406766e-05
7.265476790693873e-05
8.503652623267704e-05
9.600312569542612e-05
0.00010558984897199014
0.00011383197873918355
0.00012076479767376299
0.00012642358845255217
0.0001308436337523436
0.0001340602162499344
0.00013610861862212197
0.00013702412354570562
0.0001368420136974743
0.0001355975717542226
0.0001333260803927393
0.00013006282228981267
0.00012584308012223333
0.0001207021365667953
0.00011467527430029207
0.00010779777599951322
0.00010010492434124591
9.163200200227776e-05
8.241429165939905e-05
7.248707598939938e-05
6.188563766906646e-05
5.06452593751902e-05
3.880122378455639e-05
2.6388813573954332e-05
1.3443311420172932e-05
-3.9263035343442786e-06
-7.535363051339046e-06
-1.0836990221623632e-05
-1.384099671583745e-05
-1.6557194204619858e-05
-1.899539435861025e-05
-2.116540884844796e-05
-2.3077049344772405e-05
-2.474012751822304e-05
-2.6164455039439287e-05
-2.735984357906065e-05
-2.8336104807726663e-05
-2.9103050396076854e-05
-2.9670492014750785e-05
-3.0048241334388045e-05
-3.0246110025628306e-05
-3.0273909759111266e-05
-3.014145220547669e-05
-2.9858549035364384e-05
-2.943501191941415e-05
-2.8880652528265855e-05
-2.8205282532559358e-05
-2.741871360293455e-05
-2.653075741003135e-05
-2.5551225624489103e-05
-2.448992991694574e-05
-2.3356681958046438e-05
-2.2161293418428298e-05
-2.091357596873128e-05
-1.962334127959532e-05
-1.8300401021660338e-05
-1.6954566865566203e-05
-1.5595650481952745e-05
-1.4233463541459768e-05
-1.2877817714727033e-05
-1.1538524672394312e-05
-1.0225396085101356e-05
-8.948243623487916e-06
-7.716878958193759e-06
-6.541113759858621e-06
-5.430759699122275e-06
-4.3956284466244504e-06
-3.4455316730049034e-06
-2.590281048903407e-06
-1.83968824495971e-06
-1.2035649318135853e-06
-6.917227801047846e-07
-3.1397346047308034e-07
-8.012864355823019e-08

SCALARS DISPL_Y float 1
LOOKUP_TABLE default
0.0
-0.0030332985060185684
-0.0006272421344904268
-2.193595148346817e-06
-8.694358083514922e-06
-1.9382255040691767e-05
-3.413725225508877e-05
-5.283931596189677e-05
-7.536841239630165e-05
-0.0001016045077934471
-0.00013142756838852785
-0.0001647175604167588
-0.0002013544501133285
-0.00024121820371342457
-0.00028418878745223585
-0.0003301461675649919
-0.00037897031028694426
-0.00043054118185319233
-0.0004847387484989266
-0.0005414429764593364
-0.0006005338319696121
-0.000661891281264947
-0.0007253952905805336
-0.0007909258261515626
-0.0008583628542132281
-0.0009275863410007229
-0.00099847625274924
-0.0010709125556940143
-0.001144775216070367
-0.0012199442001131235
-0.0012962994740576795
-0.0013737210041392276
-0.0014520887565929624
-0.0015312826976540798
-0.0016111827935577701
-0.0016916690105392227
-0.0017726213148336301
-0.0018539196726761805
-0.001935444050302063
-0.002017074413946468
-0.002098690729844581
-0.002180172964231588
-0.0022614010833426745
-0.002342255053413026
-0.002422614840677836
-0.002502360411372285
-0.002581371731731553
-0.0026595287679908237
-0.0027367114863852795
-0.002812799853150103
-0.002887673834520472
-0.002961213396731566
-0.002945319432956096
-0.002859531737646066
-0.0027759001374117165
-0.0026943893495761893
-0.0026149640914627298
-0.0025375890803945624
-0.0024622290336949525
-0.0023888486686870704
-0.002317412702694087
-0.0022478858530392133
-0.0021802328370456544
-0.0021144183720366192
-0.0020504071753352916
-0.0019881639642648488
-0.0019276534561485578
-0.001868840368309616
-0.001811689418071228
-0.0017561653227566017
-0.0017022327996889424
-0.001649856566191456
-0.0015990013395873481
-0.001549631837199823
-0.0015017127763520802
-0.0014552088743673274
-0.0014100848485687394
-0.0013663054162794497
-0.0013238352948228749
-0.001282639201522092
-0.0012426818537002973
-0.0012039279686806945
-0.0011663422637864867
-0.0011298894563408868
-0.0010945342636671006
-0.0010602414030883391
-0.001026975591927812
-0.0009947015475087276
-0.0009633839871542926
-0.000932987628187717
-0.0009034771879322114
-0.0008748173837109861
-0.0008469729328472517
-0.0008199085526642175
-0.0007935889604850948
-0.0007679788736330933
-0.0007430430094314214
-0.0007187460852032911
-0.0006950528182719126
-0.0006719279259604999
-0.0006493361255922669
-0.0006146972918006192
-0.0006021524491108116
-0.0005896076064210039
-0.0005770627637311963
-0.0005645179210413886
-0.000551973078351581
-0.0005394282356617734
-0.0005268833929719659
-0.0005143385502821582
-0.0005017937075923507
-0.0004892488649025431
-0.00047670402221273555
-0.00046415917952292795
-0.00045161433683312024
-0.0004390694941433126
-0.0004265246514535049
-0.0004139798087636972
-0.00040143496607388955
-0.0003888901233840819
-0.00037634528069427424
-0.0003638004380044666
-0.0003512555953146589
-0.00033871075262485126
-0.0003261659099350435
-0.0003136210672452287
-0.00030107622455538617
-0.00028853138186557824
-0.00027598653917577037
-0.0002634416964859625
-0.0002508968537961547
-0.000238352011106347
-0.0002258071684165393
-0.00021326232572673156
-0.00020071748303692382
-0.00018817264034711614
-0.00017562779765730845
-0.0001630829549675007
-0.00015053811227769281
-0.00013799326958788505
-0.00012544842689807728
-0.00011290358420826961
-0.00010035874151846184
-8.781389882865402e-05
-7.526905613884634e-05
-6.27242134490386e-05
-5.017937075923097e-05
-3.76345280694232e-05
-2.5089685379615495e-05
-1.2544842689807712e-05

SCALARS DISPL_Z float 1
LOOKUP_TABLE default
0.0
0.0
0.0
0.0
0.0
0.0
0.0
0.0
0.0
0.0
0.0
0.0
0.0
0.0
0.0
0.0
0.0
0.0
0.0
0.0
0.0
0.0
0.0
0.0
0.0
0.0
0.0
0.0
0.0
0.0
0.0
0.0
0.0
0.0
0.0
0.0
0.0
0.0
0.0
0.0
0.0
0.0
0.0
0.0
0.0
0.0
0.0
0.0
0.0
0.0
0.0
0.0
0.0
0.0
0.0
0.0
0.0
0.0
0.0
0.0
0.0
0.0
0.0
0.0
0.0
0.0
0.0
0.0
0.0
0.0
0.0
0.0
0.0
0.0
0.0
0.0
0.0
0.0
0.0
0.0
0.0
0.0
0.0
0.0
0.0
0.0
0.0
0.0
0.0
0.0
0.0
0.0
0.0
0.0
0.0
0.0
0.0
0.0
0.0
0.0
0.0
0.0
0.0
0.0
0.0
0.0
0.0
0.0
0.0
0.0
0.0
0.0
0.0
0.0
0.0
0.0
0.0
0.0
0.0
0.0
0.0
0.0
0.0
0.0
0.0
0.0
0.0
0.0
0.0
0.0
0.0
0.0
0.0
0.0
0.0
0.0
0.0
0.0
0.0
0.0
0.0
0.0
0.0
0.0
0.0
0.0
0.0
0.0
0.0
0.0

SCALARS DISPL_MAG float 1
LOOKUP_TABLE default
0.0
0.003097867242142355
0.0006272421344904268
1.2773586379884747e-05
2.6627100101258267e-05
4.243637183393031e-05
6.081935860233874e-05
8.216331020936632e-05
0.00010668220546560234
0.0001344721377129736
0.00016555293802771233
0.00019989607126036994
0.00023744237093108916
0.00027811309277266815
0.0003218167932488747
0.0003684536466022548
0.0004179181921710614
0.00047010111185855156
0.0005248904004881642
0.0005821721501526347
0.0006418310850393887
0.0007037509322356039
0.000767814682933454
0.0008339047792331151
0.0009019032496717996
0.0009716918089118671
0.0010431519320396071
0.001116164910653459
0.0011906118957392242
0.0012663739308556997
0.001343331978148595
0.0014213669390060687
0.0015003596706857796
0.001580190999892264
0.001660741734036376
0.0017418926707288003
0.0018235246059287377
0.0019055183410727268
0.001987754689437523
0.0020701144819380802
0.0021524785725222885
0.0022347278432947367
0.002316743209479822
0.0023984056243183736
0.0024795960839802144
0.0025601956325667415
0.002640085367272238
0.0027191464437693246
0.0027972600818827534
0.0028743075716162474
0.002950170279599084
0.0030247296560226757
0.0030012574896087657
0.002907597469055424
0.0028168231592713725
0.002728869875155038
0.0026436722810144744
0.0025611644106215575
0.0024812796946355868
0.0024039509959824595
0.0023291106537330986
0.0022566905359649816
0.0021866221020155935
0.0021188364744453717
0.00205326452092057
0.0019898369461055776
0.0019284843935209468
0.0018691375571803237
0.0018117273026714757
0.0017561847971947508
0.0017024416479238839
0.0016504300479120851
0.0016000829286362379
0.0015513341181585963
0.0015041185037931
0.0014583721980964653
0.0014140327069658088
0.001371039098617628
0.0013293321722488902
0.0012888546252384128
0.0012495512178416397
0.001211368934450856
0.0011742571406458675
0.0011381677354343576
0.0011030552982756858
0.0010688772306903967
0.0010355938924734786
0.0010031687327455182
0.0009715684162836671
0.0009407629457643042
0.0009107257807099477
0.0008814339540506571
0.0008528681872676701
0.0008250130050628762
0.0007978568503644835
0.0007713922002018478
0.0007456156825165431
0.0007205281932667429
0.0006961350121599312
0.0006724459139346599
0.0006494752702152068
0.0006147098310637787
0.0006021995962025082
0.000589707189973608
0.0005772287297728469
0.0005647606783911402
0.0005522998318230412
0.0005398433068594032
0.0005273885285025756
0.000514933217238867
0.0005024753761994596
0.0004900132782375367
0.00047754545294607795
0.00046507067363762495
0.00045258794430432675
0.00044009648657374447
0.00042759572667324015
0.00041508528241330134
0.000402564950197853
0.0003900346920674925
0.0003774946227796472
0.00036494499692789345
0.0003523861961010915
0.0003398187160815792
0.0003272431540804251
0.00031466019600666015
0.00030207060376650726
0.0002894752025879755
0.00027687486836510945
0.000264270515016719
0.00025166308185306903
0.00023905352094456535
0.00022644278448626776
0.00021383181215228427
0.00020122151843444546
0.0001886127799601577
0.00017600642278499932
0.0001634032096564479
0.00015080382724611647
0.00013820887334903696
0.00012561884404985445
0.00011303412085730325
0.00010045495781000663
8.78814685585008e-05
7.531361343040917e-05
6.275118648789995e-05
5.019380258893976e-05
3.764088446639795e-05
2.509164984176953e-05
1.25450985931375e-05

