# vtk DataFile Version 2.0
mesh vtk view
ASCII
DATASET UNSTRUCTURED_GRID
POINTS 150 double
0.0 0.0 0.0
990.5621313185685 -45.499477590278524 0.0
0.0 990.5913679826436 0.0
19.811242626361384 -0.03290392722520225 0.0
39.622485252720914 -0.13041537125272384 0.0
59.43372787907236 -0.29073382561037653 0.0
79.24497050544385 -0.5120587838263315 0.0
99.05621313182253 -0.7925897394284516 0.0
118.86745575820018 -1.1305261859445248 0.0
138.6786983845432 -1.5240676169017064 0.0
158.48994101086552 -1.9714135258279177 0.0
178.30118363718788 -2.470763406251382 0.0
198.11242626351032 -3.0203167516999274 0.0
217.92366888983264 -3.6182730557013687 0.0
237.73491151615497 -4.2628318117835375 0.0
257.54615414249446 -4.952192513474879 0.0
277.35739676887323 -5.684554654304164 0.0
297.16863939525194 -6.458117727797885 0.0
316.97988202163066 -7.271081227483899 0.0
336.7911246480094 -8.121644646890045 0.0
356.6023672743879 -9.008007479544181 0.0
376.41360990076663 -9.928369218974206 0.0
396.22485252714534 -10.880929358708004 0.0
416.03609515352406 -11.863887392273439 0.0
435.8473377799028 -12.875442813198422 0.0
455.6585804062813 -13.913795115010844 0.0
475.46982303266003 -14.9771437912386 0.0
495.2810656590498 -16.063688335410212 0.0
515.0923082854833 -17.171628241055505 0.0
534.9035509118619 -18.29916300169685 0.0
554.7147935382404 -19.44449211086519 0.0
574.526036164619 -20.605815062088414 0.0
594.3372787909975 -21.781331348894437 0.0
614.1485214173761 -22.969240464811197 0.0
633.9597640437546 -24.16774190336655 0.0
653.7710066701331 -25.37503515808834 0.0
673.5822492965117 -26.589319722504452 0.0
693.3934919228902 -27.808795090142706 0.0
713.2047345492688 -29.031660754530947 0.0
733.0159771756473 -30.25611620919702 0.0
752.8272198020259 -31.480360947668714 0.0
772.6384624284045 -32.70259446347382 0.0
792.4497050547831 -33.92101625014012 0.0
812.2609476811615 -35.133825801195385 0.0
832.0721903075402 -36.33922261016754 0.0
851.8834329339187 -37.535406170584274 0.0
871.6946755602971 -38.72057597597329 0.0
891.5059181866758 -39.89293151986236 0.0
911.3171608130542 -41.050672295779194 0.0
931.1284034394328 -42.191997797251545 0.0
950.9396460658113 -43.315107517807085 0.0
970.75088869219 -44.418200950973485 0.0
971.3487578766818 -24.179791494347228 0.0
952.1025137685092 -2.892976064703518 0.0
932.8239282342058 18.36149793880093 0.0
913.5135305139097 39.58415975633314 0.0
894.1718498477794 60.77553862803798 0.0
874.7994154759706 81.93616379406296 0.0
855.3967566386514 103.066564494542 0.0
835.9644025759668 124.16726996963486 0.0
816.5028825280586 145.23880945950407 0.0
797.0127257350787 166.2817122043018 0.0
777.4944614371788 187.2965074441797 0.0
757.9486188745109 208.28372441928983 0.0
738.3757272872185 229.24389236979283 0.0
718.7763159154426 250.17754053585236 0.0
699.1509139993547 271.0851981575996 0.0
679.500050779106 291.96739447518667 0.0
659.824255494849 312.82465872876537 0.0
640.1240573867354 333.65752015848767 0.0
620.3999856949174 354.46650800450544 0.0
600.6525696595469 375.2521515069707 0.0
580.8823385207758 396.01497990603514 0.0
561.0898215187557 416.75552244185104 0.0
541.2755478936389 437.47430835457 0.0
521.4400468855772 458.1718668843442 0.0
501.5838477347117 478.8487272713371 0.0
481.707479681161 499.50541875573504 0.0
461.81147196517674 520.1424705775867 0.0
441.8963538268554 540.7604119771015 0.0
421.96265450634917 561.3597721944316 0.0
402.0109032438099 581.9410804697286 0.0
382.04162927938984 602.5048660431447 0.0
362.05536185324047 623.0516581548318 0.0
342.0526302055141 643.5819860449416 0.0
322.0339635763622 664.0963789536261 0.0
301.99989120593693 684.595366121037 0.0
281.9509423343899 705.0794767873264 0.0
261.88764620187317 725.5492401926459 0.0
241.81053204853853 746.0051855771476 0.0
221.72012911453808 766.4478421809832 0.0
201.61696664002332 786.8777392443046 0.0
181.5015738651462 807.2954060072638 0.0
161.37448003005855 827.7013717100123 0.0
141.23621437491246 848.096165592702 0.0
121.0873061398593 868.4803168954853 0.0
100.9282845650513 888.8543548585134 0.0
80.75967889064013 909.2188087219383 0.0
60.58201835677755 929.5742077259121 0.0
40.395832203615456 949.9210811105863 0.0
20.201649671305773 970.2599581161128 0.0
-0.05889455301516418 970.779540622992 0.0
-0.11303044577008568 950.9677132633404 0.0
-0.1625548533243545 931.155885903689 0.0
-0.20761495073756175 911.3440585440372 0.0
-0.24835791306929786 891.5322311843858 0.0
-0.28493091537915377 871.7204038247341 0.0
-0.3174811327267194 851.9085764650827 0.0
-0.34615574017158607 832.0967491054311 0.0
-0.3711019127733456 812.2849217457795 0.0
-0.3924668255915893 792.473094386128 0.0
-0.41039765368590975 772.6612670264764 0.0
-0.42504157211589993 752.8494396668249 0.0
-0.4365457559411528 733.0376123071734 0.0
-0.4450573802212618 713.2257849475217 0.0
-0.45072362001582067 693.4139575878702 0.0
-0.4536916503844246 673.6021302282187 0.0
-0.454108646386669 653.7903028685671 0.0
-0.45212178308215034 633.9784755089155 0.0
-0.44787823553046574 614.166648149264 0.0
-0.4415251787912123 594.3548207896125 0.0
-0.43320978792398784 574.5429934299609 0.0
-0.42307923798839037 554.7311660703094 0.0
-0.41128070404401823 534.9193387106579 0.0
-0.39796136115047026 515.1075113510063 0.0
-0.38326838436733657 495.2956839913437 0.0
-0.3673489487541861 475.4838566316373 0.0
-0.3503502293706966 455.67202927198565 0.0
-0.33241940127642444 435.86020191233405 0.0
-0.3137036395309692 416.0483745526825 0.0
-0.29435011919392984 396.23654719303096 0.0
-0.2745060153249051 376.4247198333794 0.0
-0.25431850298349307 356.6128924737279 0.0
-0.23393475722929116 336.8010651140763 0.0
-0.21350195312189651 316.9892377544248 0.0
-0.1931672657209055 297.17741039477323 0.0
-0.1730778700859147 277.3655830351218 0.0
-0.15338094127652033 257.5537556754702 0.0
-0.13422365435231873 237.7419283158185 0.0
-0.11575318437290638 217.93010095616702 0.0
-0.09811670639787931 198.11827359651545 0.0
-0.08146139548683413 178.30644623686405 0.0
-0.06593442669936676 158.49461887721247 0.0
-0.05168297509507355 138.6827915175608 0.0
-0.038854215733551106 118.8709641579093 0.0
-0.02759532367439565 99.05913679825771 0.0
-0.01805347397720378 79.24730943860631 0.0
-0.010375841701571768 59.43548207895467 0.0
-0.004709601907096205 39.62365471930316 0.0
-0.0012019296533734528 19.811827359651524 0.0

CELLS 150 450
2 0 3
2 3 4
2 4 5
2 5 6
2 6 7
2 7 8
2 8 9
2 9 10
2 10 11
2 11 12
2 12 13
2 13 14
2 14 15
2 15 16
2 16 17
2 17 18
2 18 19
2 19 20
2 20 21
2 21 22
2 22 23
2 23 24
2 24 25
2 25 26
2 26 27
2 27 28
2 28 29
2 29 30
2 30 31
2 31 32
2 32 33
2 33 34
2 34 35
2 35 36
2 36 37
2 37 38
2 38 39
2 39 40
2 40 41
2 41 42
2 42 43
2 43 44
2 44 45
2 45 46
2 46 47
2 47 48
2 48 49
2 49 50
2 50 51
2 51 1
2 1 52
2 52 53
2 53 54
2 54 55
2 55 56
2 56 57
2 57 58
2 58 59
2 59 60
2 60 61
2 61 62
2 62 63
2 63 64
2 64 65
2 65 66
2 66 67
2 67 68
2 68 69
2 69 70
2 70 71
2 71 72
2 72 73
2 73 74
2 74 75
2 75 76
2 76 77
2 77 78
2 78 79
2 79 80
2 80 81
2 81 82
2 82 83
2 83 84
2 84 85
2 85 86
2 86 87
2 87 88
2 88 89
2 89 90
2 90 91
2 91 92
2 92 93
2 93 94
2 94 95
2 95 96
2 96 97
2 97 98
2 98 99
2 99 100
2 100 2
2 2 101
2 101 102
2 102 103
2 103 104
2 104 105
2 105 106
2 106 107
2 107 108
2 108 109
2 109 110
2 110 111
2 111 112
2 112 113
2 113 114
2 114 115
2 115 116
2 116 117
2 117 118
2 118 119
2 119 120
2 120 121
2 121 122
2 122 123
2 123 124
2 124 125
2 125 126
2 126 127
2 127 128
2 128 129
2 129 130
2 130 131
2 131 132
2 132 133
2 133 134
2 134 135
2 135 136
2 136 137
2 137 138
2 138 139
2 139 140
2 140 141
2 141 142
2 142 143
2 143 144
2 144 145
2 145 146
2 146 147
2 147 148
2 148 149
2 149 0

CELL_TYPES 150
3
3
3
3
3
3
3
3
3
3
3
3
3
3
3
3
3
3
3
3
3
3
3
3
3
3
3
3
3
3
3
3
3
3
3
3
3
3
3
3
3
3
3
3
3
3
3
3
3
3
3
3
3
3
3
3
3
3
3
3
3
3
3
3
3
3
3
3
3
3
3
3
3
3
3
3
3
3
3
3
3
3
3
3
3
3
3
3
3
3
3
3
3
3
3
3
3
3
3
3
3
3
3
3
3
3
3
3
3
3
3
3
3
3
3
3
3
3
3
3
3
3
3
3
3
3
3
3
3
3
3
3
3
3
3
3
3
3
3
3
3
3
3
3
3
3
3
3
3
3

POINT_DATA 150
SCALARS DISPL_X float 1
LOOKUP_TABLE default
0.0
-0.0006291912454287654
0.0
-1.2583824908569192e-05
-2.516764981713721e-05
-3.775147472570008e-05
-5.033529963427567e-05
-6.291912454285583e-05
-7.550294945143532e-05
-8.808677435999282e-05
-0.00010067059926853715
-0.00011325442417708152
-0.00012583824908562593
-0.00013842207399417024
-0.0001510058989027146
-0.0001635897238112698
-0.00017617354871985
-0.00018875737362843012
-0.00020134119853701025
-0.00021392502344559034
-0.00022650884835417033
-0.0002390926732627504
-0.0002516764981713304
-0.0002642603230799103
-0.0002768441479884902
-0.00028942797289707007
-0.00030201179780565
-0.000314595622714237
-0.0003271794476228517
-0.0003397632725314316
-0.00035234709744001144
-0.0003649309223485913
-0.0003775147472571711
-0.0003900985721657509
-0.00040268239707433074
-0.0004152662219829105
-0.0004278500468914903
-0.00044043387180007
-0.00045301769670864965
-0.00046560152161722945
-0.00047818534652580914
-0.0004907691714343889
-0.0005033529963429686
-0.0005159368212515481
-0.0005285206461601278
-0.0005411044710687074
-0.000553688295977287
-0.0005662721208858667
-0.0005788559457944463
-0.0005914397707030261
-0.0006040235956116059
-0.0006166074205201856
-0.000576749474888268
-0.0005264990821002226
-0.00047840478438783445
-0.00043243129907428226
-0.0003885433434827758
-0.0003467056349365399
-0.0003068828907588226
-0.00026903982827282153
-0.00023314116480173215
-0.0001991516176687598
-0.00016703590419711782
-0.00013675874171000814
-0.00010828484753062047
-8.157893898214735e-05
-5.660573338782662e-05
-3.3329948070870446e-05
-1.171630035447851e-05
8.270492438148986e-06
2.6665712983808203e-05
4.35046439592949e-05
5.8822568041406766e-05
7.265476790693873e-05
8.503652623267704e-05
9.600312569542612e-05
0.00010558984897199014
0.00011383197873918355
0.00012076479767376299
0.00012642358845255217
0.0001308436337523436
0.0001340602162499344
0.00013610861862212197
0.00013702412354570562
0.0001368420136974743
0.0001355975717542226
0.0001333260803927393
0.00013006282228981267
0.00012584308012223333
0.0001207021365667953
0.00011467527430029207
0.00010779777599951322
0.00010010492434124591
9.163200200227776e-05
8.241429165939905e-05
7.248707598939938e-05
6.188563766906646e-05
5.06452593751902e-05
3.880122378455639e-05
2.6388813573954332e-05
1.3443311420172932e-05
-3.9263035343442786e-06
-7.535363051339046e-06
-1.0836990221623632e-05
-1.384099671583745e-05
-1.6557194204619858e-05
-1.899539435861025e-05
-2.116540884844796e-05
-2.3077049344772405e-05
-2.474012751822304e-05
-2.6164455039439287e-05
-2.735984357906065e-05
-2.8336104807726663e-05
-2.9103050396076854e-05
-2.9670492014750785e-05
-3.0048241334388045e-05
-3.0246110025628306e-05
-3.0273909759111266e-05
-3.014145220547669e-05
-2.9858549035364384e-05
-2.943501191941415e-05
-2.8880652528265855e-05
-2.8205282532559358e-05
-2.741871360293455e-05
-2.653075741003135e-05
-2.5551225624489103e-05
-2.448992991694574e-05
-2.3356681958046438e-05
-2.2161293418428298e-05
-2.091357596873128e-05
-1.962334127959532e-05
-1.8300401021660338e-05
-1.6954566865566203e-05
-1.5595650481952745e-05
-1.4233463541459768e-05
-1.2877817714727033e-05
-1.1538524672394312e-05
-1.0225396085101356e-05
-8.948243623487916e-06
-7.716878958193759e-06
-6.541113759858621e-06
-5.430759699122275e-06
-4.3956284466244504e-06
-3.4455316730049034e-06
-2.590281048903407e-06
-1.83968824495971e-06
-1.2035649318135853e-06
-6.917227801047846e-07
-3.1397346047308034e-07
-8.012864355823019e-08

SCALARS DISPL_Y float 1
LOOKUP_TABLE default
0.0
-0.0030332985060185684
-0.0006272421344904268
-2.193595148346817e-06
-8.694358083514922e-06
-1.9382255040691767e-05
-3.413725225508877e-05
-5.283931596189677e-05
-7.536841239630165e-05
-0.0001016045077934471
-0.00013142756838852785
-0.0001647175604167588
-0.0002013544501133285
-0.00024121820371342457
-0.00028418878745223585
-0.0003301461675649919
-0.00037897031028694426
-0.00043054118185319233
-0.0004847387484989266
-0.0005414429764593364
-0.0006005338319696121
-0.000661891281264947
-0.0007253952905805336
-0.0007909258261515626
-0.0008583628542132281
-0.0009275863410007229
-0.00099847625274924
-0.0010709125556940143
-0.001144775216070367
-0.0012199442001131235
-0.0012962994740576795
-0.0013737210041392276
-0.0014520887565929624
-0.0015312826976540798
-0.0016111827935577701
-0.0016916690105392227
-0.0017726213148336301
-0.0018539196726761805
-0.001935444050302063
-0.002017074413946468
-0.002098690729844581
-0.002180172964231588
-0.0022614010833426745
-0.002342255053413026
-0.002422614840677836
-0.002502360411372285
-0.002581371731731553
-0.0026595287679908237
-0.0027367114863852795
-0.002812799853150103
-0.002887673834520472
-0.002961213396731566
-0.002945319432956096
-0.002859531737646066
-0.0027759001374117165
-0.0026943893495761893
-0.0026149640914627298
-0.0025375890803945624
-0.0024622290336949525
-0.0023888486686870704
-0.002317412702694087
-0.0022478858530392133
-0.0021802328370456544
-0.0021144183720366192
-0.0020504071753352916
-0.0019881639642648488
-0.0019276534561485578
-0.001868840368309616
-0.001811689418071228
-0.0017561653227566017
-0.0017022327996889424
-0.001649856566191456
-0.0015990013395873481
-0.001549631837199823
-0.0015017127763520802
-0.0014552088743673274
-0.0014100848485687394
-0.0013663054162794497
-0.0013238352948228749
-0.001282639201522092
-0.0012426818537002973
-0.0012039279686806945
-0.0011663422637864867
-0.0011298894563408868
-0.0010945342636671006
-0.0010602414030883391
-0.001026975591927812
-0.0009947015475087276
-0.0009633839871542926
-0.000932987628187717
-0.0009034771879322114
-0.0008748173837109861
-0.0008469729328472517
-0.0008199085526642175
-0.0007935889604850948
-0.0007679788736330933
-0.0007430430094314214
-0.0007187460852032911
-0.0006950528182719126
-0.0006719279259604999
-0.0006493361255922669
-0.0006146972918006192
-0.0006021524491108116
-0.0005896076064210039
-0.0005770627637311963
-0.0005645179210413886
-0.000551973078351581
-0.0005394282356617734
-0.0005268833929719659
-0.0005143385502821582
-0.0005017937075923507
-0.0004892488649025431
-0.00047670402221273555
-0.00046415917952292795
-0.00045161433683312024
-0.0004390694941433126
-0.0004265246514535049
-0.0004139798087636972
-0.00040143496607388955
-0.0003888901233840819
-0.00037634528069427424
-0.0003638004380044666
-0.0003512555953146589
-0.00033871075262485126
-0.0003261659099350435
-0.0003136210672452287
-0.00030107622455538617
-0.00028853138186557824
-0.00027598653917577037
-0.0002634416964859625
-0.0002508968537961547
-0.000238352011106347
-0.0002258071684165393
-0.00021326232572673156
-0.00020071748303692382
-0.00018817264034711614
-0.00017562779765730845
-0.0001630829549675007
-0.00015053811227769281
-0.00013799326958788505
-0.00012544842689807728
-0.00011290358420826961
-0.00010035874151846184
-8.781389882865402e-05
-7.526905613884634e-05
-6.27242134490386e-05
-5.017937075923097e-05
-3.76345280694232e-05
-2.5089685379615495e-05
-1.2544842689807712e-05

SCALARS DISPL_Z float 1
LOOKUP_TABLE default
0.0
0.0
0.0
0.0
0.0
0.0
0.0
0.0
0.0
0.0
0.0
0.0
0.0
0.0
0.0
0.0
0.0
0.0
0.0
0.0
0.0
0.0
0.0
0.0
0.0
0.0
0.0
0.0
0.0
0.0
0.0
0.0
0.0
0.0
0.0
0.0
0.0
0.0
0.0
0.0
0.0
0.0
0.0
0.0
0.0
0.0
0.0
0.0
0.0
0.0
0.0
0.0
0.0
0.0
0.0
0.0
0.0
0.0
0.0
0.0
0.0
0.0
0.0
0.0
0.0
0.0
0.0
0.0
0.0
0.0
0.0
0.0
0.0
0.0
0.0
0.0
0.0
0.0
0.0
0.0
0.0
0.0
0.0
0.0
0.0
0.0
0.0
0.0
0.0
0.0
0.0
0.0
0.0
0.0
0.0
0.0
0.0
0.0
0.0
0.0
0.0
0.0
0.0
0.0
0.0
0.0
0.0
0.0
0.0
0.0
0.0
0.0
0.0
0.0
0.0
0.0
0.0
0.0
0.0
0.0
0.0
0.0
0.0
0.0
0.0
0.0
0.0
0.0
0.0
0.0
0.0
0.0
0.0
0.0
0.0
0.0
0.0
0.0
0.0
0.0
0.0
0.0
0.0
0.0
0.0
0.0
0.0
0.0
0.0
0.0

SCALARS DISPL_MAG float 1
LOOKUP_TABLE default
0.0
0.003097867242142355
0.0006272421344904268
1.2773586379884747e-05
2.6627100101258267e-05
4.243637183393031e-05
6.081935860233874e-05
8.216331020936632e-05
0.00010668220546560234
0.0001344721377129736
0.00016555293802771233
0.00019989607126036994
0.00023744237093108916
0.00027811309277266815
0.0003218167932488747
0.0003684536466022548
0.0004179181921710614
0.00047010111185855156
0.0005248904004881642
0.0005821721501526347
0.0006418310850393887
0.0007037509322356039
0.000767814682933454
0.0008339047792331151
0.0009019032496717996
0.0009716918089118671
0.0010431519320396071
0.001116164910653459
0.0011906118957392242
0.0012663739308556997
0.001343331978148595
0.0014213669390060687
0.0015003596706857796
0.001580190999892264
0.001660741734036376
0.0017418926707288003
0.0018235246059287377
0.0019055183410727268
0.001987754689437523
0.0020701144819380802
0.0021524785725222885
0.0022347278432947367
0.002316743209479822
0.0023984056243183736
0.0024795960839802144
0.0025601956325667415
0.002640085367272238
0.0027191464437693246
0.0027972600818827534
0.0028743075716162474
0.002950170279599084
0.0030247296560226757
0.0030012574896087657
0.002907597469055424
0.0028168231592713725
0.002728869875155038
0.0026436722810144744
0.0025611644106215575
0.0024812796946355868
0.0024039509959824595
0.0023291106537330986
0.0022566905359649816
0.0021866221020155935
0.0021188364744453717
0.00205326452092057
0.0019898369461055776
0.0019284843935209468
0.0018691375571803237
0.0018117273026714757
0.0017561847971947508
0.0017024416479238839
0.0016504300479120851
0.0016000829286362379
0.0015513341181585963
0.0015041185037931
0.0014583721980964653
0.0014140327069658088
0.001371039098617628
0.0013293321722488902
0.0012888546252384128
0.0012495512178416397
0.001211368934450856
0.0011742571406458675
0.0011381677354343576
0.0011030552982756858
0.0010688772306903967
0.0010355938924734786
0.0010031687327455182
0.0009715684162836671
0.0009407629457643042
0.0009107257807099477
0.0008814339540506571
0.0008528681872676701
0.0008250130050628762
0.0007978568503644835
0.0007713922002018478
0.0007456156825165431
0.0007205281932667429
0.0006961350121599312
0.0006724459139346599
0.0006494752702152068
0.0006147098310637787
0.0006021995962025082
0.000589707189973608
0.0005772287297728469
0.0005647606783911402
0.0005522998318230412
0.0005398433068594032
0.0005273885285025756
0.000514933217238867
0.0005024753761994596
0.0004900132782375367
0.00047754545294607795
0.00046507067363762495
0.00045258794430432675
0.00044009648657374447
0.00042759572667324015
0.00041508528241330134
0.000402564950197853
0.0003900346920674925
0.0003774946227796472
0.00036494499692789345
0.0003523861961010915
0.0003398187160815792
0.0003272431540804251
0.00031466019600666015
0.00030207060376650726
0.0002894752025879755
0.00027687486836510945
0.000264270515016719
0.00025166308185306903
0.00023905352094456535
0.00022644278448626776
0.00021383181215228427
0.00020122151843444546
0.0001886127799601577
0.00017600642278499932
0.0001634032096564479
0.00015080382724611647
0.00013820887334903696
0.00012561884404985445
0.00011303412085730325
0.00010045495781000663
8.78814685585008e-05
7.531361343040917e-05
6.275118648789995e-05
5.019380258893976e-05
3.764088446639795e-05
2.509164984176953e-05
1.25450985931375e-05

