# vtk DataFile Version 2.0
mesh vtk view
ASCII
DATASET UNSTRUCTURED_GRID
POINTS 150 double
0.0 0.0 0.0
995.9551991365294 -19.499776110119367 0.0
0.0 995.9677291354187 0.0
19.919103982720546 -0.014101683096515253 0.0
39.83820796543923 -0.05589230196545307 0.0
59.757311948149784 -0.12460021097587565 0.0
79.6764159308805 -0.21945376449699922 0.0
99.59551991361843 -0.3396813168979078 0.0
119.51462389635533 -0.48451122254765344 0.0
139.43372787905744 -0.653171835815017 0.0
159.3528318617387 -0.8448915110691076 0.0
179.27193584442 -1.0588986026791638 0.0
199.1910398271014 -1.2944214650142547 0.0
219.11014380978267 -1.5506884524434437 0.0
239.02924779246396 -1.826927919335802 0.0
258.94835177516245 -2.1223682200606624 0.0
278.86745575790053 -2.4362377089874987 0.0
298.7865597406385 -2.767764740484808 0.0
318.70566372337646 -3.116177668921671 0.0
338.6247677061144 -3.4807048486671626 0.0
358.5438716888523 -3.8605746340903635 0.0
378.4629756715902 -4.255015379560374 0.0
398.3820796543282 -4.663255439446287 0.0
418.3011836370662 -5.084523168117188 0.0
438.2202876198041 -5.518046919942181 0.0
458.13939160254193 -5.963055049290361 0.0
478.0584955852799 -6.418775910530829 0.0
497.97759956802895 -6.884437858032949 0.0
517.896703550822 -7.359269246166644 0.0
537.8158075335598 -7.842498429298651 0.0
557.7349115162976 -8.333353761799367 0.0
577.6540154990355 -8.831063598037892 0.0
597.5731194817732 -9.334856292383328 0.0
617.4922234645111 -9.8439601992048 0.0
637.4113274472489 -10.35760367287138 0.0
657.3304314299867 -10.875015067752146 0.0
677.2495354127244 -11.395422738216194 0.0
697.1686393954623 -11.91805503863259 0.0
717.0877433782 -12.442140323370404 0.0
737.0068473609379 -12.966906946798723 0.0
756.9259513436757 -13.491583263286591 0.0
776.8450553264136 -14.015397627203065 0.0
796.7641593091514 -14.537578392917192 0.0
816.683263291889 -15.057353914798023 0.0
836.6023672746269 -15.57395254721466 0.0
856.5214712573647 -16.086602644536118 0.0
876.4405752401025 -16.59453256113141 0.0
896.3596792228403 -17.09697065136958 0.0
916.2787832055781 -17.593145269619654 0.0
936.1978871883159 -18.082284770250663 0.0
956.1169911710537 -18.563617507631605 0.0
976.0360951537915 -19.036371836131494 0.0
976.2923248042955 1.0658036452764499 0.0
956.6153630436539 21.617295972262763 0.0
936.9245406718157 42.15492768804422 0.0
917.220084505975 62.67892560984334 0.0
897.502221363346 83.18951655486137 0.0
877.7711780611409 103.68692734030208 0.0
858.0271814165841 124.17138478335588 0.0
838.2704582468767 144.64311570123832 0.0
818.5012353692163 165.10234691116767 0.0
798.7197396008108 185.54930523035222 0.0
778.9261977588683 205.9842174759996 0.0
759.1208366605966 226.40731046531798 0.0
739.3038831231952 246.8188110155239 0.0
719.4755639638611 267.2189459438368 0.0
699.6361059998217 287.6079420674444 0.0
679.7857360482849 307.9860262035548 0.0
659.9246809264589 328.3534251693759 0.0
640.0531674515513 348.7103657821157 0.0
620.1714224407705 369.0570748589821 0.0
600.2796727113243 389.3937792171831 0.0
580.3781450804208 409.7207056739267 0.0
560.4670663652677 430.038081046421 0.0
540.5466633830731 450.3461321518735 0.0
520.617162951045 470.6450858074927 0.0
500.67879188638034 490.93516883049773 0.0
480.7317770062537 511.21660803813035 0.0
460.77634512797306 531.489630247497 0.0
440.8127230686906 551.7544622758624 0.0
420.84113764561477 572.011330940434 0.0
400.8618156759533 592.2604630584203 0.0
380.8749839769145 612.5020854470289 0.0
360.88086936570585 632.736424923468 0.0
340.8796986595358 652.9637083049453 0.0
320.87169867561175 673.184162408669 0.0
300.857096231142 693.3980140518469 0.0
280.8361181433343 713.6054900516868 0.0
260.8089912293969 733.806817225397 0.0
240.77594230653744 754.0022223901852 0.0
220.73719819196415 774.1919323632593 0.0
200.6929857028846 794.3761739618274 0.0
180.64353165650695 814.5551740030972 0.0
160.58906287003902 834.729159304277 0.0
140.52980616068905 854.8983566825743 0.0
120.46598834566444 875.0629929551975 0.0
100.39783624217358 895.2232949393541 0.0
80.32557666742422 915.3794894522523 0.0
60.249436438624215 935.5318033110999 0.0
40.169642372981556 955.680463333105 0.0
20.08642128770429 975.8256963354751 0.0
-0.02524052272078465 976.0483745527117 0.0
-0.04844161961575101 956.1290199700045 0.0
-0.06966636571043763 936.2096653872975 0.0
-0.0889778360303836 916.2903108045904 0.0
-0.10643910560112765 896.3709562218834 0.0
-0.12211324944820875 876.4516016391763 0.0
-0.13606334259716546 856.5322470564693 0.0
-0.1483524600735369 836.6128924737623 0.0
-0.1590436769028624 816.6935378910551 0.0
-0.16820006811068114 796.774183308348 0.0
-0.17588470872253276 776.854828725641 0.0
-0.18216067376395711 756.935474142934 0.0
-0.18709103826049406 737.016119560227 0.0
-0.19073887723768362 717.0967649775199 0.0
-0.193167265721066 697.1774103948129 0.0
-0.19443927873618197 677.2580558121059 0.0
-0.1946179913085724 657.3387012293988 0.0
-0.1937664784637787 637.4193466466917 0.0
-0.19194781522734247 617.4999920639847 0.0
-0.18922507662480526 597.5806374812777 0.0
-0.18566133768170906 577.6612828985707 0.0
-0.18131967342359587 557.7419283158637 0.0
-0.17626315887600782 537.8225737331567 0.0
-0.17055486906448725 517.9032191504496 0.0
-0.1642578790145728 497.98386456773136 0.0
-0.15743526375179404 478.0645099849692 0.0
-0.1501500983017271 458.145155402262 0.0
-0.14246545768989619 438.22580081955493 0.0
-0.13444441694184395 418.3064462368479 0.0
-0.12615005108311278 398.3870916541409 0.0
-0.11764543513924502 378.4677370714338 0.0
-0.10899364413578273 358.5483824887268 0.0
-0.10025775309826765 338.62902790601976 0.0
-0.09150083705224137 318.7096733233127 0.0
-0.08278597102324521 298.7903187406057 0.0
-0.07417623003682057 278.8709641578987 0.0
-0.06573468911850872 258.95160957519164 0.0
-0.057524423293850886 239.03225499248447 0.0
-0.049608507588388445 219.11290040977747 0.0
-0.04205001702766256 199.1935458270704 0.0
-0.03491202663721463 179.2741912443635 0.0
-0.02825761144258575 159.35483666165644 0.0
-0.022149846469317235 139.43548207894924 0.0
-0.016651806742950474 119.51612749624228 0.0
-0.011826567289026707 99.59677291353519 0.0
-0.0077372031330873335 79.67741833082829 0.0
-0.004446789300673615 59.75806374812116 0.0
-0.002018400817326945 39.83870916541415 0.0
-0.0005151127085886226 19.91935458270702 0.0

CELLS 150 450
2 0 3
2 3 4
2 4 5
2 5 6
2 6 7
2 7 8
2 8 9
2 9 10
2 10 11
2 11 12
2 12 13
2 13 14
2 14 15
2 15 16
2 16 17
2 17 18
2 18 19
2 19 20
2 20 21
2 21 22
2 22 23
2 23 24
2 24 25
2 25 26
2 26 27
2 27 28
2 28 29
2 29 30
2 30 31
2 31 32
2 32 33
2 33 34
2 34 35
2 35 36
2 36 37
2 37 38
2 38 39
2 39 40
2 40 41
2 41 42
2 42 43
2 43 44
2 44 45
2 45 46
2 46 47
2 47 48
2 48 49
2 49 50
2 50 51
2 51 1
2 1 52
2 52 53
2 53 54
2 54 55
2 55 56
2 56 57
2 57 58
2 58 59
2 59 60
2 60 61
2 61 62
2 62 63
2 63 64
2 64 65
2 65 66
2 66 67
2 67 68
2 68 69
2 69 70
2 70 71
2 71 72
2 72 73
2 73 74
2 74 75
2 75 76
2 76 77
2 77 78
2 78 79
2 79 80
2 80 81
2 81 82
2 82 83
2 83 84
2 84 85
2 85 86
2 86 87
2 87 88
2 88 89
2 89 90
2 90 91
2 91 92
2 92 93
2 93 94
2 94 95
2 95 96
2 96 97
2 97 98
2 98 99
2 99 100
2 100 2
2 2 101
2 101 102
2 102 103
2 103 104
2 104 105
2 105 106
2 106 107
2 107 108
2 108 109
2 109 110
2 110 111
2 111 112
2 112 113
2 113 114
2 114 115
2 115 116
2 116 117
2 117 118
2 118 119
2 119 120
2 120 121
2 121 122
2 122 123
2 123 124
2 124 125
2 125 126
2 126 127
2 127 128
2 128 129
2 129 130
2 130 131
2 131 132
2 132 133
2 133 134
2 134 135
2 135 136
2 136 137
2 137 138
2 138 139
2 139 140
2 140 141
2 141 142
2 142 143
2 143 144
2 144 145
2 145 146
2 146 147
2 147 148
2 148 149
2 149 0

CELL_TYPES 150
3
3
3
3
3
3
3
3
3
3
3
3
3
3
3
3
3
3
3
3
3
3
3
3
3
3
3
3
3
3
3
3
3
3
3
3
3
3
3
3
3
3
3
3
3
3
3
3
3
3
3
3
3
3
3
3
3
3
3
3
3
3
3
3
3
3
3
3
3
3
3
3
3
3
3
3
3
3
3
3
3
3
3
3
3
3
3
3
3
3
3
3
3
3
3
3
3
3
3
3
3
3
3
3
3
3
3
3
3
3
3
3
3
3
3
3
3
3
3
3
3
3
3
3
3
3
3
3
3
3
3
3
3
3
3
3
3
3
3
3
3
3
3
3
3
3
3
3
3
3

POINT_DATA 150
SCALARS DISPL_X float 1
LOOKUP_TABLE default
0.0
-0.0006291912454287654
0.0
-1.2583824908569192e-05
-2.516764981713721e-05
-3.775147472570008e-05
-5.033529963427567e-05
-6.291912454285583e-05
-7.550294945143532e-05
-8.808677435999282e-05
-0.00010067059926853715
-0.00011325442417708152
-0.00012583824908562593
-0.00013842207399417024
-0.0001510058989027146
-0.0001635897238112698
-0.00017617354871985
-0.00018875737362843012
-0.00020134119853701025
-0.00021392502344559034
-0.00022650884835417033
-0.0002390926732627504
-0.0002516764981713304
-0.0002642603230799103
-0.0002768441479884902
-0.00028942797289707007
-0.00030201179780565
-0.000314595622714237
-0.0003271794476228517
-0.0003397632725314316
-0.00035234709744001144
-0.0003649309223485913
-0.0003775147472571711
-0.0003900985721657509
-0.00040268239707433074
-0.0004152662219829105
-0.0004278500468914903
-0.00044043387180007
-0.00045301769670864965
-0.00046560152161722945
-0.00047818534652580914
-0.0004907691714343889
-0.0005033529963429686
-0.0005159368212515481
-0.0005285206461601278
-0.0005411044710687074
-0.000553688295977287
-0.0005662721208858667
-0.0005788559457944463
-0.0005914397707030261
-0.0006040235956116059
-0.0006166074205201856
-0.000576749474888268
-0.0005264990821002226
-0.00047840478438783445
-0.00043243129907428226
-0.0003885433434827758
-0.0003467056349365399
-0.0003068828907588226
-0.00026903982827282153
-0.00023314116480173215
-0.0001991516176687598
-0.00016703590419711782
-0.00013675874171000814
-0.00010828484753062047
-8.157893898214735e-05
-5.660573338782662e-05
-3.3329948070870446e-05
-1.171630035447851e-05
8.270492438148986e-06
2.6665712983808203e-05
4.35046439592949e-05
5.8822568041406766e-05
7.265476790693873e-05
8.503652623267704e-05
9.600312569542612e-05
0.00010558984897199014
0.00011383197873918355
0.00012076479767376299
0.00012642358845255217
0.0001308436337523436
0.0001340602162499344
0.00013610861862212197
0.00013702412354570562
0.0001368420136974743
0.0001355975717542226
0.0001333260803927393
0.00013006282228981267
0.00012584308012223333
0.0001207021365667953
0.00011467527430029207
0.00010779777599951322
0.00010010492434124591
9.163200200227776e-05
8.241429165939905e-05
7.248707598939938e-05
6.188563766906646e-05
5.06452593751902e-05
3.880122378455639e-05
2.6388813573954332e-05
1.3443311420172932e-05
-3.9263035343442786e-06
-7.535363051339046e-06
-1.0836990221623632e-05
-1.384099671583745e-05
-1.6557194204619858e-05
-1.899539435861025e-05
-2.116540884844796e-05
-2.3077049344772405e-05
-2.474012751822304e-05
-2.6164455039439287e-05
-2.735984357906065e-05
-2.8336104807726663e-05
-2.9103050396076854e-05
-2.9670492014750785e-05
-3.0048241334388045e-05
-3.0246110025628306e-05
-3.0273909759111266e-05
-3.014145220547669e-05
-2.9858549035364384e-05
-2.943501191941415e-05
-2.8880652528265855e-05
-2.8205282532559358e-05
-2.741871360293455e-05
-2.653075741003135e-05
-2.5551225624489103e-05
-2.448992991694574e-05
-2.3356681958046438e-05
-2.2161293418428298e-05
-2.091357596873128e-05
-1.962334127959532e-05
-1.8300401021660338e-05
-1.6954566865566203e-05
-1.5595650481952745e-05
-1.4233463541459768e-05
-1.2877817714727033e-05
-1.1538524672394312e-05
-1.0225396085101356e-05
-8.948243623487916e-06
-7.716878958193759e-06
-6.541113759858621e-06
-5.430759699122275e-06
-4.3956284466244504e-06
-3.4455316730049034e-06
-2.590281048903407e-06
-1.83968824495971e-06
-1.2035649318135853e-06
-6.917227801047846e-07
-3.1397346047308034e-07
-8.012864355823019e-08

SCALARS DISPL_Y float 1
LOOKUP_TABLE default
0.0
-0.0030332985060185684
-0.0006272421344904268
-2.193595148346817e-06
-8.694358083514922e-06
-1.9382255040691767e-05
-3.413725225508877e-05
-5.283931596189677e-05
-7.536841239630165e-05
-0.0001016045077934471
-0.00013142756838852785
-0.0001647175604167588
-0.0002013544501133285
-0.00024121820371342457
-0.00028418878745223585
-0.0003301461675649919
-0.00037897031028694426
-0.00043054118185319233
-0.0004847387484989266
-0.0005414429764593364
-0.0006005338319696121
-0.000661891281264947
-0.0007253952905805336
-0.0007909258261515626
-0.0008583628542132281
-0.0009275863410007229
-0.00099847625274924
-0.0010709125556940143
-0.001144775216070367
-0.0012199442001131235
-0.0012962994740576795
-0.0013737210041392276
-0.0014520887565929624
-0.0015312826976540798
-0.0016111827935577701
-0.0016916690105392227
-0.0017726213148336301
-0.0018539196726761805
-0.001935444050302063
-0.002017074413946468
-0.002098690729844581
-0.002180172964231588
-0.0022614010833426745
-0.002342255053413026
-0.002422614840677836
-0.002502360411372285
-0.002581371731731553
-0.0026595287679908237
-0.0027367114863852795
-0.002812799853150103
-0.002887673834520472
-0.002961213396731566
-0.002945319432956096
-0.002859531737646066
-0.0027759001374117165
-0.0026943893495761893
-0.0026149640914627298
-0.0025375890803945624
-0.0024622290336949525
-0.0023888486686870704
-0.002317412702694087
-0.0022478858530392133
-0.0021802328370456544
-0.0021144183720366192
-0.0020504071753352916
-0.0019881639642648488
-0.0019276534561485578
-0.001868840368309616
-0.001811689418071228
-0.0017561653227566017
-0.0017022327996889424
-0.001649856566191456
-0.0015990013395873481
-0.001549631837199823
-0.0015017127763520802
-0.0014552088743673274
-0.0014100848485687394
-0.0013663054162794497
-0.0013238352948228749
-0.001282639201522092
-0.0012426818537002973
-0.0012039279686806945
-0.0011663422637864867
-0.0011298894563408868
-0.0010945342636671006
-0.0010602414030883391
-0.001026975591927812
-0.0009947015475087276
-0.0009633839871542926
-0.000932987628187717
-0.0009034771879322114
-0.0008748173837109861
-0.0008469729328472517
-0.0008199085526642175
-0.0007935889604850948
-0.0007679788736330933
-0.0007430430094314214
-0.0007187460852032911
-0.0006950528182719126
-0.0006719279259604999
-0.0006493361255922669
-0.0006146972918006192
-0.0006021524491108116
-0.0005896076064210039
-0.0005770627637311963
-0.0005645179210413886
-0.000551973078351581
-0.0005394282356617734
-0.0005268833929719659
-0.0005143385502821582
-0.0005017937075923507
-0.0004892488649025431
-0.00047670402221273555
-0.00046415917952292795
-0.00045161433683312024
-0.0004390694941433126
-0.0004265246514535049
-0.0004139798087636972
-0.00040143496607388955
-0.0003888901233840819
-0.00037634528069427424
-0.0003638004380044666
-0.0003512555953146589
-0.00033871075262485126
-0.0003261659099350435
-0.0003136210672452287
-0.00030107622455538617
-0.00028853138186557824
-0.00027598653917577037
-0.0002634416964859625
-0.0002508968537961547
-0.000238352011106347
-0.0002258071684165393
-0.00021326232572673156
-0.00020071748303692382
-0.00018817264034711614
-0.00017562779765730845
-0.0001630829549675007
-0.00015053811227769281
-0.00013799326958788505
-0.00012544842689807728
-0.00011290358420826961
-0.00010035874151846184
-8.781389882865402e-05
-7.526905613884634e-05
-6.27242134490386e-05
-5.017937075923097e-05
-3.76345280694232e-05
-2.5089685379615495e-05
-1.2544842689807712e-05

SCALARS DISPL_Z float 1
LOOKUP_TABLE default
0.0
0.0
0.0
0.0
0.0
0.0
0.0
0.0
0.0
0.0
0.0
0.0
0.0
0.0
0.0
0.0
0.0
0.0
0.0
0.0
0.0
0.0
0.0
0.0
0.0
0.0
0.0
0.0
0.0
0.0
0.0
0.0
0.0
0.0
0.0
0.0
0.0
0.0
0.0
0.0
0.0
0.0
0.0
0.0
0.0
0.0
0.0
0.0
0.0
0.0
0.0
0.0
0.0
0.0
0.0
0.0
0.0
0.0
0.0
0.0
0.0
0.0
0.0
0.0
0.0
0.0
0.0
0.0
0.0
0.0
0.0
0.0
0.0
0.0
0.0
0.0
0.0
0.0
0.0
0.0
0.0
0.0
0.0
0.0
0.0
0.0
0.0
0.0
0.0
0.0
0.0
0.0
0.0
0.0
0.0
0.0
0.0
0.0
0.0
0.0
0.0
0.0
0.0
0.0
0.0
0.0
0.0
0.0
0.0
0.0
0.0
0.0
0.0
0.0
0.0
0.0
0.0
0.0
0.0
0.0
0.0
0.0
0.0
0.0
0.0
0.0
0.0
0.0
0.0
0.0
0.0
0.0
0.0
0.0
0.0
0.0
0.0
0.0
0.0
0.0
0.0
0.0
0.0
0.0
0.0
0.0
0.0
0.0
0.0
0.0

SCALARS DISPL_MAG float 1
LOOKUP_TABLE default
0.0
0.003097867242142355
0.0006272421344904268
1.2773586379884747e-05
2.6627100101258267e-05
4.243637183393031e-05
6.081935860233874e-05
8.216331020936632e-05
0.00010668220546560234
0.0001344721377129736
0.00016555293802771233
0.00019989607126036994
0.00023744237093108916
0.00027811309277266815
0.0003218167932488747
0.0003684536466022548
0.0004179181921710614
0.00047010111185855156
0.0005248904004881642
0.0005821721501526347
0.0006418310850393887
0.0007037509322356039
0.000767814682933454
0.0008339047792331151
0.0009019032496717996
0.0009716918089118671
0.0010431519320396071
0.001116164910653459
0.0011906118957392242
0.0012663739308556997
0.001343331978148595
0.0014213669390060687
0.0015003596706857796
0.001580190999892264
0.001660741734036376
0.0017418926707288003
0.0018235246059287377
0.0019055183410727268
0.001987754689437523
0.0020701144819380802
0.0021524785725222885
0.0022347278432947367
0.002316743209479822
0.0023984056243183736
0.0024795960839802144
0.0025601956325667415
0.002640085367272238
0.0027191464437693246
0.0027972600818827534
0.0028743075716162474
0.002950170279599084
0.0030247296560226757
0.0030012574896087657
0.002907597469055424
0.0028168231592713725
0.002728869875155038
0.0026436722810144744
0.0025611644106215575
0.0024812796946355868
0.0024039509959824595
0.0023291106537330986
0.0022566905359649816
0.0021866221020155935
0.0021188364744453717
0.00205326452092057
0.0019898369461055776
0.0019284843935209468
0.0018691375571803237
0.0018117273026714757
0.0017561847971947508
0.0017024416479238839
0.0016504300479120851
0.0016000829286362379
0.0015513341181585963
0.0015041185037931
0.0014583721980964653
0.0014140327069658088
0.001371039098617628
0.0013293321722488902
0.0012888546252384128
0.0012495512178416397
0.001211368934450856
0.0011742571406458675
0.0011381677354343576
0.0011030552982756858
0.0010688772306903967
0.0010355938924734786
0.0010031687327455182
0.0009715684162836671
0.0009407629457643042
0.0009107257807099477
0.0008814339540506571
0.0008528681872676701
0.0008250130050628762
0.0007978568503644835
0.0007713922002018478
0.0007456156825165431
0.0007205281932667429
0.0006961350121599312
0.0006724459139346599
0.0006494752702152068
0.0006147098310637787
0.0006021995962025082
0.000589707189973608
0.0005772287297728469
0.0005647606783911402
0.0005522998318230412
0.0005398433068594032
0.0005273885285025756
0.000514933217238867
0.0005024753761994596
0.0004900132782375367
0.00047754545294607795
0.00046507067363762495
0.00045258794430432675
0.00044009648657374447
0.00042759572667324015
0.00041508528241330134
0.000402564950197853
0.0003900346920674925
0.0003774946227796472
0.00036494499692789345
0.0003523861961010915
0.0003398187160815792
0.0003272431540804251
0.00031466019600666015
0.00030207060376650726
0.0002894752025879755
0.00027687486836510945
0.000264270515016719
0.00025166308185306903
0.00023905352094456535
0.00022644278448626776
0.00021383181215228427
0.00020122151843444546
0.0001886127799601577
0.00017600642278499932
0.0001634032096564479
0.00015080382724611647
0.00013820887334903696
0.00012561884404985445
0.00011303412085730325
0.00010045495781000663
8.78814685585008e-05
7.531361343040917e-05
6.275118648789995e-05
5.019380258893976e-05
3.764088446639795e-05
2.509164984176953e-05
1.25450985931375e-05

