# vtk DataFile Version 2.0
mesh vtk view
ASCII
DATASET UNSTRUCTURED_GRID
POINTS 150 double
0.0 0.0 0.0
994.6069321820391 -25.999701480159157 0.0
0.0 994.6236388472249 0.0
19.892138643630755 -0.018802244128687 0.0
39.784277287259656 -0.07452306928727076 0.0
59.67641593088043 -0.16613361463450085 0.0
79.56855457452133 -0.29260501932933225 0.0
99.46069321816947 -0.4529084225305437 0.0
119.35283186181654 -0.6460149633968713 0.0
139.24497050542888 -0.8708957810866893 0.0
159.1371091490204 -1.12652201475881 0.0
179.02924779261198 -1.411864803572218 0.0
198.92138643620362 -1.7258952866856727 0.0
218.81352507979517 -2.0675846032579246 0.0
238.70566372338672 -2.4359038924477354 0.0
258.59780236699544 -2.829824293414216 0.0
278.4899410106437 -3.248316945316665 0.0
298.38207965429183 -3.690352987313077 0.0
318.27421829794 -4.154903558562228 0.0
338.16635694158816 -4.640939798222883 0.0
358.0584955852362 -5.147432845453817 0.0
377.9506342288843 -5.673353839413831 0.0
397.8427728725325 -6.217673919261716 0.0
417.7349115161806 -6.77936422415625 0.0
437.62705015982874 -7.357395893256241 0.0
457.51918880347677 -7.950740065720481 0.0
477.4113274471249 -8.55836788070777 0.0
497.3034660907841 -9.179250477377265 0.0
517.1956047344873 -9.812358994888859 0.0
537.0877433781353 -10.4566645723982 0.0
556.9798820217834 -11.111138349065824 0.0
576.8720206654314 -11.77475146405052 0.0
596.7641593090793 -12.446475056511105 0.0
616.6562979527273 -13.125280265606397 0.0
636.5484365963754 -13.810138230495172 0.0
656.4405752400232 -14.500020090336193 0.0
676.3327138836713 -15.193896984288257 0.0
696.2248525273193 -15.890740051510116 0.0
716.1169911709671 -16.589520431160537 0.0
736.0091298146152 -17.289209262398295 0.0
755.9012684582632 -17.98877768438212 0.0
775.7934071019113 -18.687196836270754 0.0
795.6855457455592 -19.383437857222923 0.0
815.5776843892072 -20.076471886397364 0.0
835.4698230328552 -20.76527006295288 0.0
855.3619616765033 -21.448803526048156 0.0
875.2541003201511 -22.126043414841877 0.0
895.1462389637992 -22.795960868492774 0.0
915.038377607447 -23.457527026159536 0.0
934.9305162510951 -24.109713027000883 0.0
954.8226548947431 -24.751490010175473 0.0
974.7147935383912 -25.38182911484199 0.0
975.0564330723921 -5.245595139629469 0.0
955.4871507248678 15.489727963021195 0.0
935.8993875624133 36.20657025073339 0.0
916.2934460079587 56.90523414646579 0.0
896.6696284844544 77.58602207315553 0.0
877.0282374148483 98.2492364537423 0.0
857.3695752221009 118.89517971115242 0.0
837.6939443291492 139.52415426833744 0.0
818.0016471589269 160.13646254825179 0.0
798.2929861343778 180.7324069738396 0.0
778.568263678446 201.3122899680446 0.0
758.8277822140752 221.87641395381095 0.0
739.071844164201 242.42508135409113 0.0
719.3007519517564 262.95859459184067 0.0
699.5148079997049 283.4772560899832 0.0
679.7143147309902 303.98136827146277 0.0
659.8995745685564 324.47123355922326 0.0
640.0708899353474 344.9471543762087 0.0
620.2285632543072 365.4094331453629 0.0
600.37289694838 385.85837228963 0.0
580.5041934405095 406.2942742319538 0.0
560.6227551536397 426.7174413952785 0.0
540.7288845107145 447.12817620254765 0.0
520.8228839346781 467.52678107670556 0.0
500.9050558484632 487.91355844070756 0.0
480.9757026749805 508.28881071753153 0.0
461.035126837274 528.6528403300194 0.0
441.08363075823183 549.0059497011721 0.0
421.12151686079835 569.3484412539334 0.0
401.14908756791743 589.6806174112473 0.0
381.1666453025333 610.0027805960578 0.0
361.17449248758953 630.3152332313089 0.0
341.1729315460304 650.6182777399443 0.0
321.16226490079936 670.9122165449082 0.0
301.14279497484074 691.1973520691444 0.0
281.11482419109825 711.4739867355968 0.0
261.07865497251595 731.7424229672092 0.0
241.0345897420377 752.0029631869259 0.0
220.98293092260764 772.2559098176903 0.0
200.9239809371693 792.5015652824467 0.0
180.85804220866677 812.7402320041389 0.0
160.78541716004392 832.9722124057108 0.0
140.7064082142449 853.1978089101062 0.0
120.62131779421316 873.4173239402695 0.0
100.53044832289302 893.6310599191439 0.0
80.4341022232282 913.8393192696738 0.0
60.332581918162546 934.042404414803 0.0
40.22618983064003 954.2406177774753 0.0
20.115228383604663 974.4342617806345 0.0
-0.03365403029437953 974.7311660702818 0.0
-0.06458882615433467 954.8386932933386 0.0
-0.09288848761391684 934.9462205163953 0.0
-0.11863711470717812 915.0537477394521 0.0
-0.1419188074681702 895.161274962509 0.0
-0.162817665930945 875.2688021855657 0.0
-0.18141779012955395 855.3763294086226 0.0
-0.19780328009804918 835.4838566316795 0.0
-0.21205823587048317 815.5913838547361 0.0
-0.22426675748090816 795.698911077793 0.0
-0.234512944963377 775.8064383008499 0.0
-0.24288089835194282 755.9139655239068 0.0
-0.24945471768065872 736.0214927469636 0.0
-0.25431850298357817 716.1290199700204 0.0
-0.25755635429475465 696.2365471930772 0.0
-0.2592523716482426 676.344074416134 0.0
-0.25949065507809654 656.4516016391908 0.0
-0.2583553046183716 636.5591288622477 0.0
-0.2559304203031233 616.6666560853046 0.0
-0.25230010216640697 596.7741833083614 0.0
-0.24754845024227873 576.8817105314182 0.0
-0.24175956456479447 556.9892377544751 0.0
-0.2350175451680104 537.096764977532 0.0
-0.22740649208598296 517.2042922005887 0.0
-0.21901050535276373 497.31181942363446 0.0
-0.20991368500239202 477.41934664663626 0.0
-0.20020013106896944 457.5268738696929 0.0
-0.18995394358652826 437.6344010927497 0.0
-0.17925922258912524 417.74192831580655 0.0
-0.16820006811081703 397.84945553886337 0.0
-0.15686058018566001 377.9569827619202 0.0
-0.1453248588477103 358.0645099849771 0.0
-0.1336770041310235 338.1720372080339 0.0
-0.12200111606965514 318.2795644310907 0.0
-0.11038129469766028 298.3870916541476 0.0
-0.09890164004909409 278.49461887720446 0.0
-0.08764625215801161 258.6021461002613 0.0
-0.07669923105846785 238.709673323318 0.0
-0.06614467678451792 218.81720054637486 0.0
-0.05606668937021674 198.92472776943166 0.0
-0.0465493688496195 179.03225499248865 0.0
-0.037676815256781 159.13978221554544 0.0
-0.029533128625756314 139.24730943860212 0.0
-0.02220240899060063 119.35483666165904 0.0
-0.01576875638536894 99.46236388471581 0.0
-0.010316270844116444 79.56989110777279 0.0
-0.005929052400898153 59.67741833082954 0.0
-0.00269120108976926 39.7849455538864 0.0
-0.0006868169447848302 19.892472776943144 0.0

CELLS 150 450
2 0 3
2 3 4
2 4 5
2 5 6
2 6 7
2 7 8
2 8 9
2 9 10
2 10 11
2 11 12
2 12 13
2 13 14
2 14 15
2 15 16
2 16 17
2 17 18
2 18 19
2 19 20
2 20 21
2 21 22
2 22 23
2 23 24
2 24 25
2 25 26
2 26 27
2 27 28
2 28 29
2 29 30
2 30 31
2 31 32
2 32 33
2 33 34
2 34 35
2 35 36
2 36 37
2 37 38
2 38 39
2 39 40
2 40 41
2 41 42
2 42 43
2 43 44
2 44 45
2 45 46
2 46 47
2 47 48
2 48 49
2 49 50
2 50 51
2 51 1
2 1 52
2 52 53
2 53 54
2 54 55
2 55 56
2 56 57
2 57 58
2 58 59
2 59 60
2 60 61
2 61 62
2 62 63
2 63 64
2 64 65
2 65 66
2 66 67
2 67 68
2 68 69
2 69 70
2 70 71
2 71 72
2 72 73
2 73 74
2 74 75
2 75 76
2 76 77
2 77 78
2 78 79
2 79 80
2 80 81
2 81 82
2 82 83
2 83 84
2 84 85
2 85 86
2 86 87
2 87 88
2 88 89
2 89 90
2 90 91
2 91 92
2 92 93
2 93 94
2 94 95
2 95 96
2 96 97
2 97 98
2 98 99
2 99 100
2 100 2
2 2 101
2 101 102
2 102 103
2 103 104
2 104 105
2 105 106
2 106 107
2 107 108
2 108 109
2 109 110
2 110 111
2 111 112
2 112 113
2 113 114
2 114 115
2 115 116
2 116 117
2 117 118
2 118 119
2 119 120
2 120 121
2 121 122
2 122 123
2 123 124
2 124 125
2 125 126
2 126 127
2 127 128
2 128 129
2 129 130
2 130 131
2 131 132
2 132 133
2 133 134
2 134 135
2 135 136
2 136 137
2 137 138
2 138 139
2 139 140
2 140 141
2 141 142
2 142 143
2 143 144
2 144 145
2 145 146
2 146 147
2 147 148
2 148 149
2 149 0

CELL_TYPES 150
3
3
3
3
3
3
3
3
3
3
3
3
3
3
3
3
3
3
3
3
3
3
3
3
3
3
3
3
3
3
3
3
3
3
3
3
3
3
3
3
3
3
3
3
3
3
3
3
3
3
3
3
3
3
3
3
3
3
3
3
3
3
3
3
3
3
3
3
3
3
3
3
3
3
3
3
3
3
3
3
3
3
3
3
3
3
3
3
3
3
3
3
3
3
3
3
3
3
3
3
3
3
3
3
3
3
3
3
3
3
3
3
3
3
3
3
3
3
3
3
3
3
3
3
3
3
3
3
3
3
3
3
3
3
3
3
3
3
3
3
3
3
3
3
3
3
3
3
3
3

POINT_DATA 150
SCALARS DISPL_X float 1
LOOKUP_TABLE default
0.0
-0.0006291912454287654
0.0
-1.2583824908569192e-05
-2.516764981713721e-05
-3.775147472570008e-05
-5.033529963427567e-05
-6.291912454285583e-05
-7.550294945143532e-05
-8.808677435999282e-05
-0.00010067059926853715
-0.00011325442417708152
-0.00012583824908562593
-0.00013842207399417024
-0.0001510058989027146
-0.0001635897238112698
-0.00017617354871985
-0.00018875737362843012
-0.00020134119853701025
-0.00021392502344559034
-0.00022650884835417033
-0.0002390926732627504
-0.0002516764981713304
-0.0002642603230799103
-0.0002768441479884902
-0.00028942797289707007
-0.00030201179780565
-0.000314595622714237
-0.0003271794476228517
-0.0003397632725314316
-0.00035234709744001144
-0.0003649309223485913
-0.0003775147472571711
-0.0003900985721657509
-0.00040268239707433074
-0.0004152662219829105
-0.0004278500468914903
-0.00044043387180007
-0.00045301769670864965
-0.00046560152161722945
-0.00047818534652580914
-0.0004907691714343889
-0.0005033529963429686
-0.0005159368212515481
-0.0005285206461601278
-0.0005411044710687074
-0.000553688295977287
-0.0005662721208858667
-0.0005788559457944463
-0.0005914397707030261
-0.0006040235956116059
-0.0006166074205201856
-0.000576749474888268
-0.0005264990821002226
-0.00047840478438783445
-0.00043243129907428226
-0.0003885433434827758
-0.0003467056349365399
-0.0003068828907588226
-0.00026903982827282153
-0.00023314116480173215
-0.0001991516176687598
-0.00016703590419711782
-0.00013675874171000814
-0.00010828484753062047
-8.157893898214735e-05
-5.660573338782662e-05
-3.3329948070870446e-05
-1.171630035447851e-05
8.270492438148986e-06
2.6665712983808203e-05
4.35046439592949e-05
5.8822568041406766e-05
7.265476790693873e-05
8.503652623267704e-05
9.600312569542612e-05
0.00010558984897199014
0.00011383197873918355
0.00012076479767376299
0.00012642358845255217
0.0001308436337523436
0.0001340602162499344
0.00013610861862212197
0.00013702412354570562
0.0001368420136974743
0.0001355975717542226
0.0001333260803927393
0.00013006282228981267
0.00012584308012223333
0.0001207021365667953
0.00011467527430029207
0.00010779777599951322
0.00010010492434124591
9.163200200227776e-05
8.241429165939905e-05
7.248707598939938e-05
6.188563766906646e-05
5.06452593751902e-05
3.880122378455639e-05
2.6388813573954332e-05
1.3443311420172932e-05
-3.9263035343442786e-06
-7.535363051339046e-06
-1.0836990221623632e-05
-1.384099671583745e-05
-1.6557194204619858e-05
-1.899539435861025e-05
-2.116540884844796e-05
-2.3077049344772405e-05
-2.474012751822304e-05
-2.6164455039439287e-05
-2.735984357906065e-05
-2.8336104807726663e-05
-2.9103050396076854e-05
-2.9670492014750785e-05
-3.0048241334388045e-05
-3.0246110025628306e-05
-3.0273909759111266e-05
-3.014145220547669e-05
-2.9858549035364384e-05
-2.943501191941415e-05
-2.8880652528265855e-05
-2.8205282532559358e-05
-2.741871360293455e-05
-2.653075741003135e-05
-2.5551225624489103e-05
-2.448992991694574e-05
-2.3356681958046438e-05
-2.2161293418428298e-05
-2.091357596873128e-05
-1.962334127959532e-05
-1.8300401021660338e-05
-1.6954566865566203e-05
-1.5595650481952745e-05
-1.4233463541459768e-05
-1.2877817714727033e-05
-1.1538524672394312e-05
-1.0225396085101356e-05
-8.948243623487916e-06
-7.716878958193759e-06
-6.541113759858621e-06
-5.430759699122275e-06
-4.3956284466244504e-06
-3.4455316730049034e-06
-2.590281048903407e-06
-1.83968824495971e-06
-1.2035649318135853e-06
-6.917227801047846e-07
-3.1397346047308034e-07
-8.012864355823019e-08

SCALARS DISPL_Y float 1
LOOKUP_TABLE default
0.0
-0.0030332985060185684
-0.0006272421344904268
-2.193595148346817e-06
-8.694358083514922e-06
-1.9382255040691767e-05
-3.413725225508877e-05
-5.283931596189677e-05
-7.536841239630165e-05
-0.0001016045077934471
-0.00013142756838852785
-0.0001647175604167588
-0.0002013544501133285
-0.00024121820371342457
-0.00028418878745223585
-0.0003301461675649919
-0.00037897031028694426
-0.00043054118185319233
-0.0004847387484989266
-0.0005414429764593364
-0.0006005338319696121
-0.000661891281264947
-0.0007253952905805336
-0.0007909258261515626
-0.0008583628542132281
-0.0009275863410007229
-0.00099847625274924
-0.0010709125556940143
-0.001144775216070367
-0.0012199442001131235
-0.0012962994740576795
-0.0013737210041392276
-0.0014520887565929624
-0.0015312826976540798
-0.0016111827935577701
-0.0016916690105392227
-0.0017726213148336301
-0.0018539196726761805
-0.001935444050302063
-0.002017074413946468
-0.002098690729844581
-0.002180172964231588
-0.0022614010833426745
-0.002342255053413026
-0.002422614840677836
-0.002502360411372285
-0.002581371731731553
-0.0026595287679908237
-0.0027367114863852795
-0.002812799853150103
-0.002887673834520472
-0.002961213396731566
-0.002945319432956096
-0.002859531737646066
-0.0027759001374117165
-0.0026943893495761893
-0.0026149640914627298
-0.0025375890803945624
-0.0024622290336949525
-0.0023888486686870704
-0.002317412702694087
-0.0022478858530392133
-0.0021802328370456544
-0.0021144183720366192
-0.0020504071753352916
-0.0019881639642648488
-0.0019276534561485578
-0.001868840368309616
-0.001811689418071228
-0.0017561653227566017
-0.0017022327996889424
-0.001649856566191456
-0.0015990013395873481
-0.001549631837199823
-0.0015017127763520802
-0.0014552088743673274
-0.0014100848485687394
-0.0013663054162794497
-0.0013238352948228749
-0.001282639201522092
-0.0012426818537002973
-0.0012039279686806945
-0.0011663422637864867
-0.0011298894563408868
-0.0010945342636671006
-0.0010602414030883391
-0.001026975591927812
-0.0009947015475087276
-0.0009633839871542926
-0.000932987628187717
-0.0009034771879322114
-0.0008748173837109861
-0.0008469729328472517
-0.0008199085526642175
-0.0007935889604850948
-0.0007679788736330933
-0.0007430430094314214
-0.0007187460852032911
-0.0006950528182719126
-0.0006719279259604999
-0.0006493361255922669
-0.0006146972918006192
-0.0006021524491108116
-0.0005896076064210039
-0.0005770627637311963
-0.0005645179210413886
-0.000551973078351581
-0.0005394282356617734
-0.0005268833929719659
-0.0005143385502821582
-0.0005017937075923507
-0.0004892488649025431
-0.00047670402221273555
-0.00046415917952292795
-0.00045161433683312024
-0.0004390694941433126
-0.0004265246514535049
-0.0004139798087636972
-0.00040143496607388955
-0.0003888901233840819
-0.00037634528069427424
-0.0003638004380044666
-0.0003512555953146589
-0.00033871075262485126
-0.0003261659099350435
-0.0003136210672452287
-0.00030107622455538617
-0.00028853138186557824
-0.00027598653917577037
-0.0002634416964859625
-0.0002508968537961547
-0.000238352011106347
-0.0002258071684165393
-0.00021326232572673156
-0.00020071748303692382
-0.00018817264034711614
-0.00017562779765730845
-0.0001630829549675007
-0.00015053811227769281
-0.00013799326958788505
-0.00012544842689807728
-0.00011290358420826961
-0.00010035874151846184
-8.781389882865402e-05
-7.526905613884634e-05
-6.27242134490386e-05
-5.017937075923097e-05
-3.76345280694232e-05
-2.5089685379615495e-05
-1.2544842689807712e-05

SCALARS DISPL_Z float 1
LOOKUP_TABLE default
0.0
0.0
0.0
0.0
0.0
0.0
0.0
0.0
0.0
0.0
0.0
0.0
0.0
0.0
0.0
0.0
0.0
0.0
0.0
0.0
0.0
0.0
0.0
0.0
0.0
0.0
0.0
0.0
0.0
0.0
0.0
0.0
0.0
0.0
0.0
0.0
0.0
0.0
0.0
0.0
0.0
0.0
0.0
0.0
0.0
0.0
0.0
0.0
0.0
0.0
0.0
0.0
0.0
0.0
0.0
0.0
0.0
0.0
0.0
0.0
0.0
0.0
0.0
0.0
0.0
0.0
0.0
0.0
0.0
0.0
0.0
0.0
0.0
0.0
0.0
0.0
0.0
0.0
0.0
0.0
0.0
0.0
0.0
0.0
0.0
0.0
0.0
0.0
0.0
0.0
0.0
0.0
0.0
0.0
0.0
0.0
0.0
0.0
0.0
0.0
0.0
0.0
0.0
0.0
0.0
0.0
0.0
0.0
0.0
0.0
0.0
0.0
0.0
0.0
0.0
0.0
0.0
0.0
0.0
0.0
0.0
0.0
0.0
0.0
0.0
0.0
0.0
0.0
0.0
0.0
0.0
0.0
0.0
0.0
0.0
0.0
0.0
0.0
0.0
0.0
0.0
0.0
0.0
0.0
0.0
0.0
0.0
0.0
0.0
0.0

SCALARS DISPL_MAG float 1
LOOKUP_TABLE default
0.0
0.003097867242142355
0.0006272421344904268
1.2773586379884747e-05
2.6627100101258267e-05
4.243637183393031e-05
6.081935860233874e-05
8.216331020936632e-05
0.00010668220546560234
0.0001344721377129736
0.00016555293802771233
0.00019989607126036994
0.00023744237093108916
0.00027811309277266815
0.0003218167932488747
0.0003684536466022548
0.0004179181921710614
0.00047010111185855156
0.0005248904004881642
0.0005821721501526347
0.0006418310850393887
0.0007037509322356039
0.000767814682933454
0.0008339047792331151
0.0009019032496717996
0.0009716918089118671
0.0010431519320396071
0.001116164910653459
0.0011906118957392242
0.0012663739308556997
0.001343331978148595
0.0014213669390060687
0.0015003596706857796
0.001580190999892264
0.001660741734036376
0.0017418926707288003
0.0018235246059287377
0.0019055183410727268
0.001987754689437523
0.0020701144819380802
0.0021524785725222885
0.0022347278432947367
0.002316743209479822
0.0023984056243183736
0.0024795960839802144
0.0025601956325667415
0.002640085367272238
0.0027191464437693246
0.0027972600818827534
0.0028743075716162474
0.002950170279599084
0.0030247296560226757
0.0030012574896087657
0.002907597469055424
0.0028168231592713725
0.002728869875155038
0.0026436722810144744
0.0025611644106215575
0.0024812796946355868
0.0024039509959824595
0.0023291106537330986
0.0022566905359649816
0.0021866221020155935
0.0021188364744453717
0.00205326452092057
0.0019898369461055776
0.0019284843935209468
0.0018691375571803237
0.0018117273026714757
0.0017561847971947508
0.0017024416479238839
0.0016504300479120851
0.0016000829286362379
0.0015513341181585963
0.0015041185037931
0.0014583721980964653
0.0014140327069658088
0.001371039098617628
0.0013293321722488902
0.0012888546252384128
0.0012495512178416397
0.001211368934450856
0.0011742571406458675
0.0011381677354343576
0.0011030552982756858
0.0010688772306903967
0.0010355938924734786
0.0010031687327455182
0.0009715684162836671
0.0009407629457643042
0.0009107257807099477
0.0008814339540506571
0.0008528681872676701
0.0008250130050628762
0.0007978568503644835
0.0007713922002018478
0.0007456156825165431
0.0007205281932667429
0.0006961350121599312
0.0006724459139346599
0.0006494752702152068
0.0006147098310637787
0.0006021995962025082
0.000589707189973608
0.0005772287297728469
0.0005647606783911402
0.0005522998318230412
0.0005398433068594032
0.0005273885285025756
0.000514933217238867
0.0005024753761994596
0.0004900132782375367
0.00047754545294607795
0.00046507067363762495
0.00045258794430432675
0.00044009648657374447
0.00042759572667324015
0.00041508528241330134
0.000402564950197853
0.0003900346920674925
0.0003774946227796472
0.00036494499692789345
0.0003523861961010915
0.0003398187160815792
0.0003272431540804251
0.00031466019600666015
0.00030207060376650726
0.0002894752025879755
0.00027687486836510945
0.000264270515016719
0.00025166308185306903
0.00023905352094456535
0.00022644278448626776
0.00021383181215228427
0.00020122151843444546
0.0001886127799601577
0.00017600642278499932
0.0001634032096564479
0.00015080382724611647
0.00013820887334903696
0.00012561884404985445
0.00011303412085730325
0.00010045495781000663
8.78814685585008e-05
7.531361343040917e-05
6.275118648789995e-05
5.019380258893976e-05
3.764088446639795e-05
2.509164984176953e-05
1.25450985931375e-05

