# vtk DataFile Version 2.0
mesh vtk view
ASCII
DATASET UNSTRUCTURED_GRID
POINTS 45 double
0.0 0.0 0.0
200.00409704802914 0.004899988395301366 -0.013204414163854528
200.00933652769405 100.00548995959095 -0.01343451984438081
0.0 100.0 0.0
0.0 0.0 100.0
199.99066347230598 0.0054899595909960195 99.98656548015569
199.995902951971 100.00489998839532 99.98679558583606
0.0 100.0 100.0
49.99899484714791 0.0007787101819692519 -0.0013646105715387166
100.00232681829519 -0.00034156976061566904 2.7316194399601936e-05
149.9964517869951 -0.001544207382586729 0.004712722207855203
199.99327556016695 49.99487551050536 0.013077696999020514
149.99191418193269 99.99776255723337 0.0049831038825415485
100.00530245403642 100.00043900433971 -0.0002771300836749824
49.997709415698715 100.00019732219423 -0.0011378525880052395
0.0 50.00000000025812 0.0
50.002290584432885 0.00019732219443316715 99.99886214741174
99.99469754612717 0.0004390043394825553 99.99972286991664
150.00808581814923 -0.0022374427665053705 100.00498310388231
200.00672443983305 49.994875510505324 100.01307769699903
150.00354821308673 99.99845579261759 100.0047127222081
99.99767318186842 99.9996584302391 100.00002731619408
50.00100515298375 100.0007787101822 99.99863538942871
0.0 50.00000000025812 100.0
0.0 0.0 50.0
200.0026227243207 -0.005100676759753675 50.01313875035345
199.9973772756792 99.99489932324026 50.013138750353534
0.0 100.0 50.0
50.00159628453391 49.99943940541538 0.0014343015755534422
99.99621589039303 50.00004639129912 -0.00015085904347780384
150.00581505290802 50.00180759243187 -0.004578622333128951
49.99937740306926 -0.000559418735068264 50.00143731673653
100.00147591091424 5.8839351984567e-05 49.99988105679901
149.9977319623942 0.0017857939764288828 49.99536548812658
200.0 50.00502969110861 49.987104303659876
150.00226803768777 100.00178579397641 49.99536548812634
99.99852408924929 100.00005883935201 49.99988105679933
50.000622597062396 99.99944058126492 50.00143731673628
0.0 50.00000000025812 50.0
49.99840371559776 49.99943940541516 100.00143430157556
100.00378410977056 50.000046391299385 99.99984914095653
149.99418494717378 50.00180759243172 99.99542137766686
50.000000000065825 50.00063190244387 49.99837985680573
100.0000000000818 49.99984550043322 50.00039612372062
150.0000000000409 49.998298047906665 50.0043636587744

CELLS 16 144
8 0 8 28 15 24 31 42 38
8 24 31 42 38 4 16 39 23
8 15 28 14 3 38 42 37 27
8 38 42 37 27 23 39 22 7
8 8 9 29 28 31 32 43 42
8 31 32 43 42 16 17 40 39
8 28 29 13 14 42 43 36 37
8 42 43 36 37 39 40 21 22
8 9 10 30 29 32 33 44 43
8 32 33 44 43 17 18 41 40
8 29 30 12 13 43 44 35 36
8 43 44 35 36 40 41 20 21
8 10 1 11 30 33 25 34 44
8 33 25 34 44 18 5 19 41
8 30 11 2 12 44 34 26 35
8 44 34 26 35 41 19 6 20

CELL_TYPES 16
12
12
12
12
12
12
12
12
12
12
12
12
12
12
12
12

POINT_DATA 45
SCALARS MODE1_0.0849_Hz float 1
LOOKUP_TABLE default
0.0
7.334034398570556e-05
8.628393957466434e-05
0.0
0.0
8.628393957440342e-05
7.334034398593693e-05
0.0
9.325882486335333e-06
1.1759571735077363e-05
3.048940005846581e-05
7.786280251833326e-05
4.878983859417421e-05
2.663904053626758e-05
1.2826167226826696e-05
0.0
1.282616722724786e-05
2.6639040536000738e-05
4.878983859337792e-05
7.786280251840651e-05
3.048940005887753e-05
1.1759571735055399e-05
9.325882485969284e-06
0.0
0.0
7.168025305484889e-05
7.168025305526055e-05
0.0
1.1090098701783148e-05
1.8936998664295404e-05
3.809396702936924e-05
8.316332397673603e-06
7.4093245678705265e-06
2.730007040847388e-05
6.920924405709397e-05
2.7300070409569176e-05
7.409324567906248e-06
8.316332396644766e-06
0.0
1.1090098702027394e-05
1.8936998664272724e-05
3.809396702919e-05
8.695062506333245e-06
2.1259358575250717e-06
2.3419094024404243e-05

