# vtk DataFile Version 2.0
mesh vtk view
ASCII
DATASET UNSTRUCTURED_GRID
POINTS 101 double
0.0 0.0 0.0
1000.0 0.0 0.0
9.999999999994726 -0.0009009143571759644 0.0
19.99999999998992 -0.0011043535285014425 0.0
29.99999999998562 -0.00045281777751492673 0.0
39.99999999997797 0.0005492831087841349 0.0
49.99999999996744 0.001126136761167948 0.0
59.99999999995786 0.0008311512198130099 0.0
69.99999999995445 -0.00010729987061610359 0.0
79.99999999995798 -0.0009626809149267758 0.0
89.99999999996166 -0.0010727679757348491 0.0
99.99999999996537 -0.0003523332035944848 0.0
109.999999999969 0.0006408729642966072 0.0
119.9999999999717 0.0011379243242199068 0.0
129.9999999999648 0.0007540107253790517 0.0
139.9999999999431 -0.00021364733998801015 0.0
149.9999999999183 -0.0010159026487252657 0.0
159.9999999998936 -0.0010316604584725254 0.0
169.9999999998689 -0.0002487212952237492 0.0
179.9999999998441 0.0007267743859989536 0.0
189.9999999998194 0.0011396115904124817 0.0
199.9999999997947 0.0006701775783820924 0.0
209.99999999977 -0.00031809846042918724 0.0
219.9999999997452 -0.0010601071586896192 0.0
229.9999999997205 -0.0009813958499523571 0.0
239.9999999996957 -0.00014290171903699725 0.0
249.999999999671 0.0008062249067980324 0.0
259.9999999996635 0.0011311835834540945 0.0
269.9999999996674 0.0005803958877530983 0.0
279.999999999671 -0.0004197261164242789 0.0
289.9999999996747 -0.001094902082470509 0.0
299.9999999996784 -0.0009224203023861572 0.0
309.9999999996821 -3.5813737059374645e-05 0.0
319.9999999996858 0.0008785193182634535 0.0
329.9999999996894 0.001112715110927053 0.0
339.9999999996932 0.00048546256212284446 0.0
349.9999999996969 -0.0005176282537082316 0.0
359.9999999997005 -0.0011199785778582608 0.0
369.9999999997042 -0.0008552572869102996 0.0
379.9999999997079 7.159213018785384e-05 0.0
389.9999999997116 0.0009430159300666166 0.0
399.9999999997153 0.0010843701003015456 0.0
409.999999999719 0.0003862202364232096 0.0
419.9999999997227 -0.0006109358859671399 0.0
429.9999999997264 -0.001135114064100868 0.0
439.9999999997301 -0.0007805029472084965 0.0
449.9999999997338 0.00017836254061923476 0.0
459.9999999997374 0.000999142265714386 0.0
469.9999999997411 0.0010464001438985743 0.0
479.9999999997448 0.00028354979256291175 0.0
489.9999999997486 -0.0006988208080514416 0.0
499.9999999997633 -0.0011401741975509327 0.0
509.9999999998065 -0.0006988208080879867 0.0
519.9999999998261 0.0002835497925196951 0.0
529.9999999998297 0.0010464001438808476 0.0
539.9999999998333 0.0009991422657358777 0.0
549.999999999837 0.0001783625406633024 0.0
559.9999999998406 -0.000780502947175963 0.0
569.9999999998441 -0.0011351140641050618 0.0
579.9999999998479 -0.0006109358860048199 0.0
589.9999999998514 0.0003862202363811988 0.0
599.999999999855 0.0010843701002877396 0.0
609.9999999998587 0.000943015930091712 0.0
619.9999999998623 7.159213023242803e-05 0.0
629.9999999998658 -0.0008552572868807488 0.0
639.9999999998696 -0.0011199785778666282 0.0
649.9999999998732 -0.0005176282537480319 0.0
659.9999999998768 0.00048546256208240474 0.0
669.9999999998805 0.001112715110917294 0.0
679.999999999884 0.0008785193182919355 0.0
689.9999999998877 -3.58137370146909e-05 0.0
699.9999999998913 -0.0009224203023598739 0.0
709.999999999895 -0.001094902082482983 0.0
719.9999999998985 -0.00041972611646586943 0.0
729.9999999999021 0.0005803958877146035 0.0
739.9999999999058 0.0011311835834484898 0.0
749.9999999999094 0.000806224906828864 0.0
759.999999999913 -0.00014290171899666317 0.0
769.9999999999167 -0.0009813958499331687 0.0
779.9999999999203 -0.001060107158702415 0.0
789.9999999999238 -0.0003180984604597374 0.0
799.9999999999276 0.0006701775783587444 0.0
809.9999999999311 0.0011396115904116647 0.0
819.9999999999347 0.0007267743860166587 0.0
829.9999999999384 -0.00024872129520420427 0.0
839.999999999942 -0.0010316604584652523 0.0
849.9999999999455 -0.0010159026487316968 0.0
859.9999999999493 -0.00021364733999901028 0.0
869.9999999999529 0.0007540107253726218 0.0
879.9999999999565 0.001137924324220369 0.0
889.9999999999602 0.0006408729643027027 0.0
899.9999999999637 -0.0003523332035874564 0.0
909.9999999999674 -0.0010727679757323318 0.0
919.9999999999709 -0.0009626809149307286 0.0
929.9999999999746 -0.00010729987062344338 0.0
939.9999999999782 0.0008311512198084499 0.0
949.9999999999818 0.0011261367611687671 0.0
959.9999999999854 0.0005492831087874686 0.0
969.9999999999891 -0.00045281777751250615 0.0
979.9999999999927 -0.0011043535285009888 0.0
989.9999999999964 -0.0009009143571765291 0.0

CELLS 100 300
2 0 2
2 2 3
2 3 4
2 4 5
2 5 6
2 6 7
2 7 8
2 8 9
2 9 10
2 10 11
2 11 12
2 12 13
2 13 14
2 14 15
2 15 16
2 16 17
2 17 18
2 18 19
2 19 20
2 20 21
2 21 22
2 22 23
2 23 24
2 24 25
2 25 26
2 26 27
2 27 28
2 28 29
2 29 30
2 30 31
2 31 32
2 32 33
2 33 34
2 34 35
2 35 36
2 36 37
2 37 38
2 38 39
2 39 40
2 40 41
2 41 42
2 42 43
2 43 44
2 44 45
2 45 46
2 46 47
2 47 48
2 48 49
2 49 50
2 50 51
2 51 52
2 52 53
2 53 54
2 54 55
2 55 56
2 56 57
2 57 58
2 58 59
2 59 60
2 60 61
2 61 62
2 62 63
2 63 64
2 64 65
2 65 66
2 66 67
2 67 68
2 68 69
2 69 70
2 70 71
2 71 72
2 72 73
2 73 74
2 74 75
2 75 76
2 76 77
2 77 78
2 78 79
2 79 80
2 80 81
2 81 82
2 82 83
2 83 84
2 84 85
2 85 86
2 86 87
2 87 88
2 88 89
2 89 90
2 90 91
2 91 92
2 92 93
2 93 94
2 94 95
2 95 96
2 96 97
2 97 98
2 98 99
2 99 100
2 100 1

CELL_TYPES 100
3
3
3
3
3
3
3
3
3
3
3
3
3
3
3
3
3
3
3
3
3
3
3
3
3
3
3
3
3
3
3
3
3
3
3
3
3
3
3
3
3
3
3
3
3
3
3
3
3
3
3
3
3
3
3
3
3
3
3
3
3
3
3
3
3
3
3
3
3
3
3
3
3
3
3
3
3
3
3
3
3
3
3
3
3
3
3
3
3
3
3
3
3
3
3
3
3
3
3
3

POINT_DATA 101
SCALARS MODE3_0.1668_Hz float 1
LOOKUP_TABLE default
0.0
0.0
-4.504571785879822e-06
-5.521767642507212e-06
-2.2640888875746336e-06
2.7464155439206747e-06
5.63068380583974e-06
4.15575609906505e-06
-5.36499353080518e-07
-4.813404574633879e-06
-5.363839878674245e-06
-1.761666017972424e-06
3.204364821483036e-06
5.689621621099534e-06
3.7700536268952586e-06
-1.0682366999400507e-06
-5.0795132436263285e-06
-5.158302292362627e-06
-1.2436064761187458e-06
3.633871929994768e-06
5.698057952062409e-06
3.3508878919104624e-06
-1.5904923021459362e-06
-5.300535793448096e-06
-4.906979249761786e-06
-7.145085951849863e-07
4.031124533990162e-06
5.655917917270472e-06
2.9019794387654913e-06
-2.0986305821213945e-06
-5.474510412352545e-06
-4.612101511930786e-06
-1.7906868529687324e-07
4.392596591317267e-06
5.563575554635265e-06
2.4273128106142223e-06
-2.588141268541158e-06
-5.599892889291304e-06
-4.276286434551498e-06
3.579606509392692e-07
4.715079650333083e-06
5.421850501507728e-06
1.931101182116048e-06
-3.054679429835699e-06
-5.675570320504341e-06
-3.9025147360424825e-06
8.918127030961738e-07
4.99571132857193e-06
5.232000719492872e-06
1.4177489628145587e-06
-3.494104040257208e-06
-5.700870987754664e-06
-3.4941040404399332e-06
1.4177489625984757e-06
5.232000719404238e-06
4.995711328679388e-06
8.918127033165121e-07
-3.902514735879815e-06
-5.675570320525309e-06
-3.0546794300240997e-06
1.931101181905994e-06
5.4218505014386975e-06
4.71507965045856e-06
3.5796065116214015e-07
-4.276286434403744e-06
-5.599892889333141e-06
-2.5881412687401594e-06
2.4273128104120236e-06
5.56357555458647e-06
4.392596591459677e-06
-1.790686850734545e-07
-4.612101511799369e-06
-5.474510412414915e-06
-2.098630582329347e-06
2.9019794385730174e-06
5.65591791724245e-06
4.03112453414432e-06
-7.145085949833158e-07
-4.9069792496658435e-06
-5.300535793512075e-06
-1.590492302298687e-06
3.3508878917937217e-06
5.698057952058323e-06
3.6338719300832935e-06
-1.2436064760210213e-06
-5.1583022923262615e-06
-5.079513243658484e-06
-1.0682366999950514e-06
3.770053626863109e-06
5.689621621101846e-06
3.2043648215135132e-06
-1.761666017937282e-06
-5.363839878661659e-06
-4.813404574653643e-06
-5.364993531172169e-07
4.155756099042249e-06
5.630683805843836e-06
2.746415543937343e-06
-2.2640888875625308e-06
-5.521767642504945e-06
-4.504571785882645e-06

