# vtk DataFile Version 2.0
mesh vtk view
ASCII
DATASET UNSTRUCTURED_GRID
POINTS 101 double
0.0 0.0 0.0
1000.0 0.0 0.0
9.999999999994726 -0.0008784128813589727 0.0
19.99999999998992 -0.0011198428869655763 0.0
29.99999999998562 -0.0005492165604442912 0.0
39.99999999997797 0.0004196752645760413 0.0
49.99999999996744 0.0010842387235344313 0.0
59.99999999995786 0.000962564281416142 0.0
69.99999999995445 0.00014288440576591872 0.0
79.99999999995798 -0.0007804083854242201 0.0
89.99999999996166 -0.001137786459106427 0.0
99.99999999996537 -0.0006700963830665185 0.0
109.999999999969 0.0002835154390859013 0.0
119.9999999999717 0.00103153546774131 0.0
129.9999999999648 0.0010315354677440235 0.0
139.9999999999431 0.00028351543909444475 0.0
149.9999999999183 -0.000670096383057072 0.0
159.9999999998936 -0.0011377864591055082 0.0
169.9999999998689 -0.0007804083854368702 0.0
179.9999999998441 0.00014288440574588358 0.0
189.9999999998194 0.0009625642814041817 0.0
199.9999999997947 0.0010842387235418078 0.0
209.99999999977 0.0004196752645995411 0.0
219.9999999997452 -0.0005492165604206387 0.0
229.9999999997205 -0.0011198428869601414 0.0
239.9999999996957 -0.0008784128813787642 0.0
249.999999999671 -3.2989550005762136e-14 0.0
259.9999999996635 0.0008784128813378066 0.0
269.9999999996674 0.0011198428869716413 0.0
279.999999999671 0.0005492165604719364 0.0
289.9999999996747 -0.00041967526454777295 0.0
299.9999999996784 -0.0010842387235254856 0.0
309.9999999996821 -0.0009625642814309694 0.0
319.9999999996858 -0.0001428844057926456 0.0
329.9999999996894 0.0007804083854045922 0.0
339.9999999996932 0.0011377864591081244 0.0
349.9999999996969 0.0006700963830883013 0.0
359.9999999997005 -0.00028351543905982823 0.0
369.9999999997042 -0.0010315354677299065 0.0
379.9999999997079 -0.0010315354677550134 0.0
389.9999999997116 -0.00028351543911694075 0.0
399.9999999997153 0.000670096383040617 0.0
409.999999999719 0.0011377864591044326 0.0
419.9999999997227 0.0007804083854475766 0.0
429.9999999997264 -0.00014288440573416984 0.0
439.9999999997301 -0.0009625642813993968 0.0
449.9999999997338 -0.0010842387235437158 0.0
459.9999999997374 -0.00041967526460259325 0.0
469.9999999997411 0.000549216560420288 0.0
479.9999999997448 0.0011198428869606245 0.0
489.9999999997486 0.0008784128813754103 0.0
499.9999999997633 2.3742917435969776e-14 0.0
509.9999999998065 -0.0008784128813469622 0.0
519.9999999998261 -0.001119842886968691 0.0
529.9999999998297 -0.0005492165604580183 0.0
539.9999999998333 0.00041967526456255534 0.0
549.999999999837 0.0010842387235304122 0.0
559.9999999998406 0.0009625642814224737 0.0
569.9999999998441 0.0001428844057769137 0.0
579.9999999998479 -0.0007804083854161751 0.0
589.9999999998514 -0.00113778645910714 0.0
599.999999999855 -0.0006700963830754854 0.0
609.9999999998587 0.00028351543907518693 0.0
619.9999999998623 0.0010315354677366624 0.0
629.9999999998658 0.0010315354677482792 0.0
639.9999999998696 0.00028351543910160346 0.0
649.9999999998732 -0.0006700963830534203 0.0
659.9999999998768 -0.0011377864591054256 0.0
669.9999999998805 -0.000780408385436049 0.0
679.999999999884 0.00014288440574984214 0.0
689.9999999998877 0.0009625642814078576 0.0
699.9999999998913 0.0010842387235388375 0.0
709.999999999895 0.0004196752645879124 0.0
719.9999999998985 -0.0005492165604341066 0.0
729.9999999999021 -0.0011198428869635723 0.0
739.9999999999058 -0.0008784128813653604 0.0
749.9999999999094 -9.093051541604215e-15 0.0
759.999999999913 0.0008784128813537698 0.0
769.9999999999167 0.001119842886966984 0.0
779.9999999999203 0.0005492165604500486 0.0
789.9999999999238 -0.00041967526457099987 0.0
799.9999999999276 -0.0010842387235332218 0.0
809.9999999999311 -0.0009625642814176061 0.0
819.9999999999347 -0.00014288440576788758 0.0
829.9999999999384 0.0007804083854228019 0.0
839.999999999942 0.0011377864591065746 0.0
849.9999999999455 0.0006700963830681421 0.0
859.9999999999493 -0.0002835154390839924 0.0
869.9999999999529 -0.0010315354677405317 0.0
879.9999999999565 -0.0010315354677444047 0.0
889.9999999999602 -0.0002835154390927924 0.0
899.9999999999637 0.0006700963830607708 0.0
909.9999999999674 0.0011377864591059976 0.0
919.9999999999709 0.0007804083854294325 0.0
929.9999999999746 -0.0001428844057588703 0.0
939.9999999999782 -0.0009625642814127286 0.0
949.9999999999818 -0.0010842387235360297 0.0
959.9999999999854 -0.0004196752645794594 0.0
969.9999999999891 0.0005492165604420873 0.0
979.9999999999927 0.0011198428869652862 0.0
989.9999999999964 0.0008784128813595705 0.0

CELLS 100 300
2 0 2
2 2 3
2 3 4
2 4 5
2 5 6
2 6 7
2 7 8
2 8 9
2 9 10
2 10 11
2 11 12
2 12 13
2 13 14
2 14 15
2 15 16
2 16 17
2 17 18
2 18 19
2 19 20
2 20 21
2 21 22
2 22 23
2 23 24
2 24 25
2 25 26
2 26 27
2 27 28
2 28 29
2 29 30
2 30 31
2 31 32
2 32 33
2 33 34
2 34 35
2 35 36
2 36 37
2 37 38
2 38 39
2 39 40
2 40 41
2 41 42
2 42 43
2 43 44
2 44 45
2 45 46
2 46 47
2 47 48
2 48 49
2 49 50
2 50 51
2 51 52
2 52 53
2 53 54
2 54 55
2 55 56
2 56 57
2 57 58
2 58 59
2 59 60
2 60 61
2 61 62
2 62 63
2 63 64
2 64 65
2 65 66
2 66 67
2 67 68
2 68 69
2 69 70
2 70 71
2 71 72
2 72 73
2 73 74
2 74 75
2 75 76
2 76 77
2 77 78
2 78 79
2 79 80
2 80 81
2 81 82
2 82 83
2 83 84
2 84 85
2 85 86
2 86 87
2 87 88
2 88 89
2 89 90
2 90 91
2 91 92
2 92 93
2 93 94
2 94 95
2 95 96
2 96 97
2 97 98
2 98 99
2 99 100
2 100 1

CELL_TYPES 100
3
3
3
3
3
3
3
3
3
3
3
3
3
3
3
3
3
3
3
3
3
3
3
3
3
3
3
3
3
3
3
3
3
3
3
3
3
3
3
3
3
3
3
3
3
3
3
3
3
3
3
3
3
3
3
3
3
3
3
3
3
3
3
3
3
3
3
3
3
3
3
3
3
3
3
3
3
3
3
3
3
3
3
3
3
3
3
3
3
3
3
3
3
3
3
3
3
3
3
3

POINT_DATA 101
SCALARS MODE2_0.1555_Hz float 1
LOOKUP_TABLE default
0.0
0.0
-4.392064406794864e-06
-5.599214434827882e-06
-2.746082802221456e-06
2.0983763228802065e-06
5.421193617672156e-06
4.81282140708071e-06
7.144220288295936e-07
-3.9020419271211005e-06
-5.688932295532135e-06
-3.3504819153325927e-06
1.4175771954295064e-06
5.1576773387065495e-06
5.157677338720117e-06
1.4175771954722238e-06
-3.35048191528536e-06
-5.688932295527541e-06
-3.902041927184351e-06
7.144220287294179e-07
4.812821407020908e-06
5.421193617709039e-06
2.0983763229977057e-06
-2.7460828021031935e-06
-5.599214434800707e-06
-4.392064406893821e-06
-1.649477500288107e-16
4.392064406689033e-06
5.599214434858206e-06
2.746082802359682e-06
-2.0983763227388647e-06
-5.421193617627428e-06
-4.812821407154847e-06
-7.14422028963228e-07
3.902041927022961e-06
5.688932295540622e-06
3.3504819154415067e-06
-1.4175771952991413e-06
-5.157677338649533e-06
-5.157677338775067e-06
-1.4175771955847036e-06
3.350481915203085e-06
5.6889322955221634e-06
3.9020419272378835e-06
-7.144220286708492e-07
-4.812821406996984e-06
-5.4211936177185795e-06
-2.0983763230129663e-06
2.74608280210144e-06
5.599214434803123e-06
4.3920644068770515e-06
1.1871458717984889e-16
-4.392064406734811e-06
-5.599214434843455e-06
-2.7460828022900914e-06
2.098376322812777e-06
5.421193617652061e-06
4.812821407112368e-06
7.144220288845684e-07
-3.902041927080876e-06
-5.688932295535699e-06
-3.350481915377427e-06
1.4175771953759348e-06
5.157677338683312e-06
5.157677338741396e-06
1.4175771955080173e-06
-3.3504819152671013e-06
-5.688932295527128e-06
-3.902041927180245e-06
7.144220287492107e-07
4.812821407039288e-06
5.4211936176941874e-06
2.098376322939562e-06
-2.746082802170533e-06
-5.599214434817861e-06
-4.392064406826802e-06
-4.5465257708021073e-17
4.392064406768849e-06
5.59921443483492e-06
2.746082802250243e-06
-2.0983763228549993e-06
-5.421193617666109e-06
-4.812821407088031e-06
-7.144220288394379e-07
3.902041927114009e-06
5.6889322955328725e-06
3.3504819153407106e-06
-1.4175771954199619e-06
-5.157677338702659e-06
-5.157677338722023e-06
-1.417577195463962e-06
3.350481915303854e-06
5.6889322955299875e-06
3.902041927147163e-06
-7.144220287943515e-07
-4.812821407063643e-06
-5.421193617680149e-06
-2.098376322897297e-06
2.7460828022104364e-06
5.599214434826431e-06
4.392064406797852e-06

