# vtk DataFile Version 2.0
mesh vtk view
ASCII
DATASET UNSTRUCTURED_GRID
POINTS 3 double
0.0 0.0 0.0
2.0 -8.777142857142845e-13 0.0
0.9999999999973842 -2.7428571428442254e-13 0.0

CELLS 2 6
2 0 2
2 2 1

CELL_TYPES 2
3
3

POINT_DATA 3
SCALARS DISPL_step1 float 1
LOOKUP_TABLE default
0.0
3.199999999999998e-06
9.999999999952913e-07

