# vtk DataFile Version 2.0
mesh vtk view
ASCII
DATASET UNSTRUCTURED_GRID
POINTS 401 double
0.0 0.0 0.0
1.000000000000002 1.0 0.0
2.0 0.0 0.0
0.00499999999999054 0.00499999999999054 0.0
0.009999999999981125 0.009999999999981125 0.0
0.014999999999971765 0.014999999999971765 0.0
0.019999999999962412 0.019999999999962412 0.0
0.024999999999952914 0.024999999999952914 0.0
0.02999999999994312 0.02999999999994312 0.0
0.03499999999993268 0.03499999999993268 0.0
0.03999999999992194 0.03999999999992194 0.0
0.04499999999991084 0.04499999999991084 0.0
0.049999999999899736 0.049999999999899736 0.0
0.054999999999888714 0.054999999999888714 0.0
0.05999999999987849 0.05999999999987849 0.0
0.06499999999986913 0.06499999999986913 0.0
0.06999999999986063 0.06999999999986063 0.0
0.07499999999985295 0.07499999999985295 0.0
0.07999999999984533 0.07999999999984533 0.0
0.0849999999998377 0.0849999999998377 0.0
0.08999999999983008 0.08999999999983008 0.0
0.09499999999982246 0.09499999999982246 0.0
0.09999999999981483 0.09999999999981483 0.0
0.1049999999998072 0.1049999999998072 0.0
0.1099999999997996 0.1099999999997996 0.0
0.114999999999792 0.114999999999792 0.0
0.11999999999978342 0.11999999999978342 0.0
0.12499999999977403 0.12499999999977403 0.0
0.12999999999976125 0.12999999999976125 0.0
0.13499999999974763 0.13499999999974763 0.0
0.13999999999973303 0.13999999999973303 0.0
0.14499999999971844 0.14499999999971844 0.0
0.14999999999970393 0.14999999999970393 0.0
0.15499999999968936 0.15499999999968936 0.0
0.15999999999967487 0.15999999999967487 0.0
0.16499999999966028 0.16499999999966028 0.0
0.16999999999964566 0.16999999999964566 0.0
0.17499999999963117 0.17499999999963117 0.0
0.17999999999961658 0.17999999999961658 0.0
0.18499999999960198 0.18499999999960198 0.0
0.1899999999995874 0.1899999999995874 0.0
0.1949999999995729 0.1949999999995729 0.0
0.19999999999955828 0.19999999999955828 0.0
0.2049999999995438 0.2049999999995438 0.0
0.20999999999952923 0.20999999999952923 0.0
0.21499999999951463 0.21499999999951463 0.0
0.21999999999950012 0.21999999999950012 0.0
0.22499999999948553 0.22499999999948553 0.0
0.22999999999947102 0.22999999999947102 0.0
0.23499999999945642 0.23499999999945642 0.0
0.23999999999944185 0.23999999999944185 0.0
0.24499999999942734 0.24499999999942734 0.0
0.24999999999941275 0.24999999999941275 0.0
0.25499999999939815 0.25499999999939815 0.0
0.25999999999938356 0.25999999999938356 0.0
0.26499999999936896 0.26499999999936896 0.0
0.26999999999935437 0.26999999999935437 0.0
0.2749999999993399 0.2749999999993399 0.0
0.2799999999993253 0.2799999999993253 0.0
0.2849999999993107 0.2849999999993107 0.0
0.2899999999992961 0.2899999999992961 0.0
0.29499999999928156 0.29499999999928156 0.0
0.29999999999926696 0.29999999999926696 0.0
0.30499999999925237 0.30499999999925237 0.0
0.30999999999923783 0.30999999999923783 0.0
0.31499999999922323 0.31499999999922323 0.0
0.31999999999920864 0.31999999999920864 0.0
0.32499999999919404 0.32499999999919404 0.0
0.32999999999917956 0.32999999999917956 0.0
0.3349999999991649 0.3349999999991649 0.0
0.3399999999991503 0.3399999999991503 0.0
0.3449999999991357 0.3449999999991357 0.0
0.3499999999991211 0.3499999999991211 0.0
0.35499999999910664 0.35499999999910664 0.0
0.35999999999909205 0.35999999999909205 0.0
0.3649999999990775 0.3649999999990775 0.0
0.3699999999990629 0.3699999999990629 0.0
0.37499999999904826 0.37499999999904826 0.0
0.37999999999903367 0.37999999999903367 0.0
0.3849999999990192 0.3849999999990192 0.0
0.3899999999990046 0.3899999999990046 0.0
0.39499999999899 0.39499999999899 0.0
0.3999999999989754 0.3999999999989754 0.0
0.4049999999989609 0.4049999999989609 0.0
0.40999999999894626 0.40999999999894626 0.0
0.41499999999893167 0.41499999999893167 0.0
0.41999999999891713 0.41999999999891713 0.0
0.42499999999890253 0.42499999999890253 0.0
0.42999999999888794 0.42999999999888794 0.0
0.43499999999887345 0.43499999999887345 0.0
0.43999999999885886 0.43999999999885886 0.0
0.44499999999884426 0.44499999999884426 0.0
0.44999999999882967 0.44999999999882967 0.0
0.454999999998815 0.454999999998815 0.0
0.4599999999988004 0.4599999999988004 0.0
0.46499999999878583 0.46499999999878583 0.0
0.46999999999877123 0.46999999999877123 0.0
0.4749999999987568 0.4749999999987568 0.0
0.4799999999987422 0.4799999999987422 0.0
0.4849999999987276 0.4849999999987276 0.0
0.4899999999987131 0.4899999999987131 0.0
0.4949999999987024 0.4949999999987024 0.0
0.4999999999986948 0.4999999999986948 0.0
0.504999999998701 0.504999999998701 0.0
0.5099999999987104 0.5099999999987104 0.0
0.5149999999987235 0.5149999999987235 0.0
0.5199999999987368 0.5199999999987368 0.0
0.5249999999987499 0.5249999999987499 0.0
0.529999999998763 0.529999999998763 0.0
0.5349999999987762 0.5349999999987762 0.0
0.5399999999987893 0.5399999999987893 0.0
0.5449999999988026 0.5449999999988026 0.0
0.5499999999988157 0.5499999999988157 0.0
0.5549999999988289 0.5549999999988289 0.0
0.5599999999988421 0.5599999999988421 0.0
0.5649999999988552 0.5649999999988552 0.0
0.5699999999988684 0.5699999999988684 0.0
0.5749999999988815 0.5749999999988815 0.0
0.5799999999988946 0.5799999999988946 0.0
0.5849999999989078 0.5849999999989078 0.0
0.589999999998921 0.589999999998921 0.0
0.5949999999989343 0.5949999999989343 0.0
0.5999999999989474 0.5999999999989474 0.0
0.6049999999989605 0.6049999999989605 0.0
0.6099999999989737 0.6099999999989737 0.0
0.6149999999989869 0.6149999999989869 0.0
0.6199999999990001 0.6199999999990001 0.0
0.6249999999990133 0.6249999999990133 0.0
0.6299999999990264 0.6299999999990264 0.0
0.6349999999990397 0.6349999999990397 0.0
0.6399999999990528 0.6399999999990528 0.0
0.644999999999066 0.644999999999066 0.0
0.6499999999990791 0.6499999999990791 0.0
0.6549999999990922 0.6549999999990922 0.0
0.6599999999991055 0.6599999999991055 0.0
0.6649999999991186 0.6649999999991186 0.0
0.6699999999991318 0.6699999999991318 0.0
0.674999999999145 0.674999999999145 0.0
0.6799999999991581 0.6799999999991581 0.0
0.6849999999991713 0.6849999999991713 0.0
0.6899999999991844 0.6899999999991844 0.0
0.6949999999991977 0.6949999999991977 0.0
0.6999999999992108 0.6999999999992108 0.0
0.7049999999992239 0.7049999999992239 0.0
0.7099999999992371 0.7099999999992371 0.0
0.7149999999992502 0.7149999999992502 0.0
0.7199999999992635 0.7199999999992635 0.0
0.7249999999992767 0.7249999999992767 0.0
0.7299999999992899 0.7299999999992899 0.0
0.7349999999993031 0.7349999999993031 0.0
0.7399999999993162 0.7399999999993162 0.0
0.7449999999993294 0.7449999999993294 0.0
0.7499999999993425 0.7499999999993425 0.0
0.7549999999993556 0.7549999999993556 0.0
0.7599999999993688 0.7599999999993688 0.0
0.7649999999993821 0.7649999999993821 0.0
0.7699999999993953 0.7699999999993953 0.0
0.7749999999994084 0.7749999999994084 0.0
0.7799999999994215 0.7799999999994215 0.0
0.7849999999994347 0.7849999999994347 0.0
0.7899999999994478 0.7899999999994478 0.0
0.794999999999461 0.794999999999461 0.0
0.7999999999994741 0.7999999999994741 0.0
0.8049999999994873 0.8049999999994873 0.0
0.8099999999995006 0.8099999999995006 0.0
0.8149999999995137 0.8149999999995137 0.0
0.8199999999995269 0.8199999999995269 0.0
0.82499999999954 0.82499999999954 0.0
0.8299999999995531 0.8299999999995531 0.0
0.8349999999995664 0.8349999999995664 0.0
0.8399999999995796 0.8399999999995796 0.0
0.8449999999995929 0.8449999999995929 0.0
0.849999999999606 0.849999999999606 0.0
0.8549999999996191 0.8549999999996191 0.0
0.8599999999996323 0.8599999999996323 0.0
0.8649999999996454 0.8649999999996454 0.0
0.8699999999996586 0.8699999999996586 0.0
0.8749999999996718 0.8749999999996718 0.0
0.8799999999996849 0.8799999999996849 0.0
0.8849999999996981 0.8849999999996981 0.0
0.8899999999997112 0.8899999999997112 0.0
0.8949999999997245 0.8949999999997245 0.0
0.8999999999997376 0.8999999999997376 0.0
0.9049999999997507 0.9049999999997507 0.0
0.909999999999764 0.909999999999764 0.0
0.9149999999997771 0.9149999999997771 0.0
0.9199999999997903 0.9199999999997903 0.0
0.9249999999998034 0.9249999999998034 0.0
0.9299999999998165 0.9299999999998165 0.0
0.9349999999998297 0.9349999999998297 0.0
0.9399999999998429 0.9399999999998429 0.0
0.9449999999998563 0.9449999999998563 0.0
0.9499999999998694 0.9499999999998694 0.0
0.9549999999998825 0.9549999999998825 0.0
0.9599999999998957 0.9599999999998957 0.0
0.9649999999999088 0.9649999999999088 0.0
0.969999999999922 0.969999999999922 0.0
0.9749999999999351 0.9749999999999351 0.0
0.9799999999999484 0.9799999999999484 0.0
0.9849999999999616 0.9849999999999616 0.0
0.9899999999999747 0.9899999999999747 0.0
0.9949999999999879 0.9949999999999879 0.0
1.995000000000005 0.004999999999995237 0.0
1.99000000000001 0.009999999999990499 0.0
1.985000000000014 0.014999999999985785 0.0
1.980000000000019 0.019999999999981078 0.0
1.975000000000024 0.024999999999976305 0.0
1.970000000000029 0.02999999999997137 0.0
1.965000000000034 0.03499999999996613 0.0
1.960000000000039 0.03999999999996072 0.0
1.955000000000045 0.044999999999955145 0.0
1.95000000000005 0.049999999999949564 0.0
1.945000000000056 0.05499999999994402 0.0
1.940000000000061 0.05999999999993886 0.0
1.935000000000066 0.06499999999993414 0.0
1.93000000000007 0.06999999999992987 0.0
1.925000000000074 0.074999999999926 0.0
1.920000000000078 0.07999999999992216 0.0
1.915000000000082 0.08499999999991832 0.0
1.910000000000085 0.08999999999991448 0.0
1.905000000000089 0.09499999999991063 0.0
1.900000000000093 0.09999999999990679 0.0
1.895000000000097 0.1049999999999029 0.0
1.890000000000101 0.1099999999998991 0.0
1.8850000000001053 0.11499999999989528 0.0
1.8800000000001091 0.11999999999989087 0.0
1.8750000000001141 0.12499999999988617 0.0
1.8700000000001202 0.12999999999987977 0.0
1.8650000000001272 0.13499999999987297 0.0
1.8600000000001342 0.13999999999986565 0.0
1.8550000000001423 0.14499999999985835 0.0
1.8500000000001493 0.14999999999985097 0.0
1.8450000000001563 0.15499999999984362 0.0
1.8400000000001642 0.15999999999983633 0.0
[...]
POINT_DATA 401
SCALARS DISPL_step0 float 1
LOOKUP_TABLE default
0.0
1.4142135623717168e-08
0.0
4.99999999998411e-11
9.99999999997052e-11
1.4999999999955562e-10
1.9999999999941103e-10
2.4999999999927117e-10
2.9999999999911207e-10
3.4999999999896916e-10
3.9999999999879125e-10
4.499999999986536e-10
4.999999999984596e-10
5.499999999983312e-10
5.999999999981381e-10
6.499999999980335e-10
6.999999999978527e-10
7.499999999977719e-10
7.99999999997593e-10
8.499999999975158e-10
8.999999999973317e-10
9.499999999972627e-10
9.999999999970718e-10
1.049999999997005e-09
1.0999999999968082e-09
1.1499999999967464e-09
1.1999999999965337e-09
1.2499999999964626e-09
1.2999999999961948e-09
1.3499999999960894e-09
1.3999999999957933e-09
1.4499999999956906e-09
1.4999999999953794e-09
1.5499999999952896e-09
1.599999999994965e-09
1.6499999999948906e-09
1.699999999994549e-09
1.7499999999944893e-09
1.799999999994137e-09
1.8499999999940844e-09
1.899999999993718e-09
1.9499999999936837e-09
1.9999999999933016e-09
2.0499999999932785e-09
2.099999999992883e-09
2.1499999999928716e-09
2.199999999992464e-09
2.2499999999924692e-09
2.299999999992046e-09
2.349999999992065e-09
2.399999999991631e-09
2.4499999999916645e-09
2.4999999999912195e-09
2.5499999999912597e-09
2.599999999990815e-09
2.6499999999908553e-09
2.6999999999904123e-09
2.7499999999904525e-09
2.799999999990013e-09
2.8499999999900464e-09
2.8999999999896085e-09
2.9499999999896424e-09
2.999999999989206e-09
3.0499999999892343e-09
3.099999999988803e-09
3.149999999988824e-09
3.1999999999883956e-09
3.2499999999884184e-09
3.299999999987992e-09
3.3499999999880065e-09
3.3999999999875884e-09
3.4499999999876025e-09
3.4999999999871827e-09
3.549999999987194e-09
3.5999999999867783e-09
3.649999999986784e-09
3.6999999999863714e-09
3.7499999999863735e-09
3.799999999985969e-09
3.8499999999859674e-09
3.899999999985563e-09
3.9499999999855605e-09
3.999999999985157e-09
4.04999999998515e-09
4.0999999999847504e-09
4.149999999984739e-09
4.199999999984345e-09
4.249999999984333e-09
4.29999999998394e-09
4.349999999983924e-09
4.3999999999835355e-09
4.449999999983515e-09
4.499999999983126e-09
4.549999999983104e-09
4.599999999982721e-09
4.6499999999826965e-09
4.699999999982319e-09
4.749999999982287e-09
4.799999999981913e-09
4.849999999981877e-09
4.899999999981503e-09
4.949999999981507e-09
4.999999999981208e-09
5.049999999981373e-09
5.099999999981249e-09
5.149999999981477e-09
5.1999999999813945e-09
5.2499999999816216e-09
5.2999999999815385e-09
5.349999999981764e-09
5.399999999981689e-09
5.449999999981912e-09
5.499999999981841e-09
5.54999999998206e-09
5.599999999981997e-09
5.649999999982213e-09
5.699999999982151e-09
5.749999999982367e-09
5.7999999999823106e-09
5.849999999982524e-09
5.89999999998247e-09
5.949999999982681e-09
5.9999999999826325e-09
6.049999999982841e-09
6.099999999982798e-09
6.149999999983002e-09
6.199999999982965e-09
6.249999999983167e-09
6.2999999999831315e-09
6.349999999983332e-09
6.399999999983306e-09
6.449999999983506e-09
6.499999999983485e-09
6.549999999983677e-09
6.599999999983663e-09
6.649999999983852e-09
6.699999999983847e-09
6.749999999984026e-09
6.79999999998402e-09
6.849999999984211e-09
6.899999999984202e-09
6.949999999984398e-09
6.999999999984394e-09
7.049999999984573e-09
7.099999999984581e-09
7.149999999984758e-09
7.199999999984773e-09
7.249999999984951e-09
7.299999999984965e-09
7.349999999985143e-09
7.399999999985168e-09
7.449999999985341e-09
7.499999999985368e-09
7.549999999985542e-09
7.599999999985578e-09
7.649999999985747e-09
7.69999999998578e-09
7.749999999985948e-09
7.799999999985995e-09
7.849999999986159e-09
7.8999999999862e-09
7.94999999998637e-09
7.999999999986423e-09
8.049999999986582e-09
8.099999999986642e-09
8.149999999986808e-09
8.199999999986877e-09
8.249999999987028e-09
8.299999999987099e-09
8.34999999998726e-09
8.399999999987337e-09
8.449999999987494e-09
8.499999999987567e-09
8.549999999987722e-09
8.599999999987808e-09
8.649999999987961e-09
8.699999999988049e-09
8.749999999988197e-09
8.799999999988295e-09
8.84999999998844e-09
8.89999999998855e-09
8.9499999999887e-09
8.999999999988808e-09
9.04999999998895e-09
9.09999999998906e-09
9.149999999989205e-09
9.199999999989329e-09
9.249999999989465e-09
9.299999999989588e-09
9.349999999989727e-09
9.39999999998986e-09
9.449999999989993e-09
9.499999999990134e-09
9.54999999999026e-09
9.599999999990395e-09
9.649999999990529e-09
9.699999999990675e-09
9.749999999990816e-09
9.799999999990959e-09
9.849999999991088e-09
9.899999999991235e-09
9.94999999999137e-09
4.9999999999889166e-11
9.999999999975597e-11
1.4999999999964155e-10
1.9999999999951768e-10
2.499999999993872e-10
2.9999999999927234e-10
3.499999999991333e-10
3.999999999990252e-10
4.4999999999886805e-10
4.999999999987714e-10
5.499999999986049e-10
5.999999999985185e-10
6.499999999983546e-10
6.999999999982822e-10
7.499999999981212e-10
7.999999999980577e-10
8.499999999978931e-10
8.999999999978404e-10
9.499999999976672e-10
9.999999999976163e-10
1.0499999999974404e-09
1.099999999997396e-09
1.1499999999972157e-09
1.1999999999971741e-09
1.2499999999969763e-09
1.299999999996926e-09
1.3499999999966992e-09
1.3999999999966498e-09
1.4499999999964015e-09
1.4999999999963683e-09
1.549999999996114e-09
1.5999999999960906e-09
1.6499999999958208e-09
1.6999999999958175e-09
1.749999999995535e-09
1.7999999999955376e-09
1.8499999999952456e-09
1.899999999995267e-09
1.9499999999949514e-09
1.99999999999499e-09
2.049999999994668e-09
2.0999999999947157e-09
2.149999999994381e-09
2.1999999999944457e-09
2.24999999999409e-09
2.2999999999941716e-09
2.349999999993808e-09
2.3999999999938995e-09
2.449999999993519e-09
2.499999999993623e-09
2.5499999999932404e-09
2.5999999999933397e-09
2.649999999992957e-09
2.6999999999930593e-09
2.7499999999926722e-09
2.799999999992772e-09
2.8499999999923973e-09
2.8999999999924924e-09
2.9499999999921115e-09
2.9999999999922075e-09
3.049999999991836e-09
3.099999999991921e-09
3.149999999991555e-09
3.1999999999916427e-09
3.2499999999912796e-09
3.2999999999913582e-09
3.3499999999910005e-09
3.39999999999108e-09
3.4499999999907214e-09
3.4999999999908017e-09
3.549999999990451e-09
3.599999999990522e-09
3.6499999999901785e-09
3.699999999990248e-09
3.749999999989904e-09
3.7999999999899705e-09
3.849999999989636e-09
3.899999999989702e-09
3.949999999989364e-09
3.99999999998943e-09
4.0499999999891e-09
4.099999999989162e-09
4.149999999988831e-09
4.19999999998889e-09
4.249999999988568e-09
4.299999999988619e-09
4.3499999999883046e-09
4.399999999988356e-09
4.449999999988043e-09
4.499999999988092e-09
4.549999999987779e-09
4.599999999987826e-09
4.649999999987514e-09
4.699999999987561e-09
4.74999999998726e-09
4.799999999987295e-09
4.849999999987001e-09
4.8999999999870414e-09
4.949999999986764e-09
4.999999999986833e-09
5.0499999999866465e-09
5.09999999998679e-09
5.149999999986649e-09
5.199999999986815e-09
5.249999999986669e-09
5.299999999986834e-09
5.3499999999866914e-09
5.399999999986852e-09
5.44999999998672e-09
5.499999999986875e-09
5.549999999986747e-09
5.599999999986902e-09
5.649999999986775e-09
5.699999999986931e-09
5.7499999999868075e-09
5.799999999986957e-09
5.849999999986834e-09
5.899999999986983e-09
5.9499999999868705e-09
5.999999999987008e-09
6.049999999986903e-09
6.099999999987041e-09
6.149999999986935e-09
6.199999999987077e-09
6.2499999999869675e-09
6.299999999987103e-09
6.349999999987002e-09
6.399999999987136e-09
6.449999999987041e-09
6.499999999987163e-09
6.549999999987075e-09
6.5999999999871964e-09
6.6499999999871076e-09
6.699999999987231e-09
6.749999999987147e-09
6.799999999987266e-09
6.849999999987184e-09
6.8999999999873e-09
6.9499999999872194e-09
6.999999999987336e-09
7.0499999999872625e-09
7.0999999999873705e-09
7.149999999987306e-09
7.199999999987417e-09
7.249999999987354e-09
7.299999999987461e-09
7.349999999987398e-09
7.399999999987504e-09
7.449999999987448e-09
7.499999999987549e-09
7.549999999987504e-09
7.599999999987596e-09
7.649999999987555e-09
7.69999999998765e-09
7.749999999987605e-09
7.799999999987699e-09
7.849999999987663e-09
7.899999999987749e-09
7.949999999987715e-09
7.999999999987805e-09
8.049999999987779e-09
8.09999999998786e-09
8.149999999987836e-09
8.199999999987919e-09
8.249999999987901e-09
8.29999999998798e-09
8.349999999987965e-09
8.39999999998804e-09
8.449999999988035e-09
8.499999999988107e-09
8.549999999988107e-09
8.59999999998818e-09
8.64999999998818e-09
8.699999999988243e-09
8.749999999988258e-09
8.799999999988328e-09
8.849999999988335e-09
8.899999999988397e-09
8.949999999988415e-09
8.99999999998848e-09
9.049999999988504e-09
9.099999999988557e-09
9.149999999988586e-09
9.199999999988646e-09
9.249999999988676e-09
9.299999999988738e-09
9.349999999988773e-09
9.399999999988821e-09
9.449999999988861e-09
9.499999999988915e-09
9.54999999998897e-09
9.599999999989013e-09
9.649999999989062e-09
9.699999999989109e-09
9.74999999998916e-09
9.799999999989205e-09
9.849999999989267e-09
9.899999999989306e-09
9.94999999998937e-09

