# vtk DataFile Version 2.0
mesh vtk view
ASCII
DATASET UNSTRUCTURED_GRID
POINTS 65 double
0.0 0.0 0.0
5.0 0.0 0.0
3.348447221109734e-05 1.999408898369027 -0.12693610936870525
5.000029279902907 1.999409589650605 -0.12729095176105157
7.110838517356033e-05 3.998817905762209 -0.2780645950172638
5.00008172879205 3.9988203908876274 -0.2790272569417034
-4.1858305402594806e-05 5.998227801129279 -0.1681518948671269
5.000197101414156 5.998232902656351 -0.16979662930395
-0.1868234918533991 5.0 4.831587698795526
5.188861673789464 5.002270458528471 4.829941859379807
1.316486138776367e-06 0.33323480851857645 -0.004913661614275458
4.956713773536586e-06 0.666469618385647 -0.018542382189020823
1.0456854095435662e-05 0.9997044309526378 -0.039218903796118136
1.735336425796637e-05 1.3329392475724213 -0.06527944204940735
2.5183262036258264e-05 1.6661740695942393 -0.09506708666154785
5.000001544468948 0.33323492374059904 -0.004928831472381063
5.000005592809067 0.6664698488279597 -0.018598803837937307
5.000011267450507 0.9997047766122795 -0.03933627694429139
5.000017691138107 1.3329397084452024 -0.06547109596654929
5.000023987208035 1.666174645674742 -0.09534000191563277
0.8333661238674238 1.9993946997462508 -0.1286796142954266
1.6666987604516574 1.9993922309542578 -0.13060097288767247
2.500031394288112 1.999397897953068 -0.13141680911865677
3.33336402543609 1.9994068901377686 -0.13070196298368134
4.166696653954225 1.9994131900989667 -0.12889439286124785
4.27602505799326e-05 2.3326437047937016 -0.15927838634710118
5.282379519402024e-05 2.665878520672324 -0.1906160248020094
6.21805867538444e-05 2.999113347356807 -0.21953084144516383
6.933880700334381e-05 3.3323481861989164 -0.24463664591068338
7.280979410844134e-05 3.6655830385502486 -0.26458404299179
5.000034326888904 2.332644695102545 -0.15972116061605482
5.000040595247321 2.665879809994488 -0.19115881036900256
5.000048275592497 2.999114935672817 -0.22018059705765441
5.000057560647529 3.332350073483769 -0.245395299207253
5.000068645641982 3.6655852247734133 -0.26544859783789265
0.8334062279070865 3.9988288831136147 -0.279612359276373
1.6667413411817182 3.9988387062635686 -0.28246253474250993
2.5000764480600544 3.998846815564094 -0.2838275694579739
3.3334115483894964 3.9988503210468522 -0.2827770464045762
4.166746642017105 3.9988440177254416 -0.2802456457498136
6.298018021746283e-05 4.332052839931006 -0.2838666597202055
4.896172825616499e-05 4.66528779166001 -0.2810616665663372
3.025930575683434e-05 4.998522762296981 -0.26883420491619087
8.081624792156234e-06 5.331757753189418 -0.2464157505092285
-1.6361107081173086e-05 5.664992765684542 -0.2130825673306765
5.000098732100324 4.332055761254393 -0.2849283364299787
5.000119833685058 4.6652911491328375 -0.2822326839768472
5.00014262250319 4.998526555867811 -0.27012139806827024
5.000164693694634 5.3317619828039025 -0.24782264993657147
5.000183649712096 5.664997431285415 -0.21460960483464572
0.8333313125911833 5.998272504304733 -0.1622285507427086
1.666704483659583 5.9982878628419956 -0.15984114354808643
2.500077651489813 5.998285311743064 -0.15940697452820002
3.3334508126680324 5.9982728451913 -0.16039733263827208
4.166823963780072 5.998255014106452 -0.16333405758874706
-0.014657618764239847 5.860122490961034 0.6651018966587723
-0.03948191717515813 5.7042971798337945 1.4983701572850978
-0.07154295532269839 5.536113687029826 2.331652876898539
-0.10814445754621303 5.360333239085611 3.1649500456253765
-0.1470708710153511 5.180781865693509 3.9982616549162584
5.01535036026471 5.860440931270633 0.6634568004003516
5.040681336577136 5.704969217373404 1.496724731932959
5.07316767468527 5.53716739931704 2.330007186860608
5.110070272085513 5.361785887658046 3.1633041839780525
5.1491411864946866 5.182642020400926 3.9966157382147482

CELLS 66 198
2 0 10
2 10 11
2 11 12
2 12 13
2 13 14
2 14 2
2 1 15
2 15 16
2 16 17
2 17 18
2 18 19
2 19 3
2 2 20
2 20 21
2 21 22
2 22 23
2 23 24
2 24 3
2 2 25
2 25 26
2 26 27
2 27 28
2 28 29
2 29 4
2 3 30
2 30 31
2 31 32
2 32 33
2 33 34
2 34 5
2 4 35
2 35 36
2 36 37
2 37 38
2 38 39
2 39 5
2 4 40
2 40 41
2 41 42
2 42 43
2 43 44
2 44 6
2 5 45
2 45 46
2 46 47
2 47 48
2 48 49
2 49 7
2 6 50
2 50 51
2 51 52
2 52 53
2 53 54
2 54 7
2 6 55
2 55 56
2 56 57
2 57 58
2 58 59
2 59 8
2 7 60
2 60 61
2 61 62
2 62 63
2 63 64
2 64 9

CELL_TYPES 66
3
3
3
3
3
3
3
3
3
3
3
3
3
3
3
3
3
3
3
3
3
3
3
3
3
3
3
3
3
3
3
3
3
3
3
3
3
3
3
3
3
3
3
3
3
3
3
3
3
3
3
3
3
3
3
3
3
3
3
3
3
3
3
3
3
3

POINT_DATA 65
SCALARS MODE4_8.9235_Hz float 1
LOOKUP_TABLE default
0.0
0.0
0.00615686468300608
0.006174075254610823
0.013487123540960561
0.013533814859598963
0.008156345228179243
0.008236118314445295
0.05001388695377669
0.04993826372836829
0.0002383758469212189
0.0008994142562596085
0.0019022933991597768
0.0031663146086934454
0.004611112651136319
0.00023911137655767056
0.0009021506186979024
0.0019079860869663636
0.003175610122890336
0.004624349556357459
0.006241432402210002
0.006334623823060095
0.00637419272760675
0.006339518822280261
0.006251845537606894
0.007725571841036345
0.009245551865300766
0.010648018659046002
0.011865737992112503
0.012833260474545591
0.0077470472683674185
0.009271878032414152
0.010679533098725347
0.011902534232455362
0.01287519324613373
0.013562192045874492
0.013700431307318205
0.013766637613960677
0.013715683720271597
0.01359290519358022
0.013768559906970443
0.013632532820112245
0.013039495424926289
0.011952177754986072
0.010335488877240132
0.01382005387574298
0.013689330373276992
0.013101928113195048
0.012020416729221392
0.010409554714163117
0.007869037439308472
0.00775323959899677
0.007732184287176875
0.0077802246432012055
0.007922667644641562
0.010635616726057597
0.016613483965437815
0.02418597705289638
0.03250873537033369
0.041187932415375904
0.010689454877209806
0.016631578337543064
0.02417699848671945
0.03247691130680999
0.041134379558844233

