# vtk DataFile Version 2.0
mesh vtk view
ASCII
DATASET UNSTRUCTURED_GRID
POINTS 2541 double
0.0 0.0 0.0
199.6796687961033 -0.9966163863322854 -0.0012845123452768145
200.3203312038967 99.00338361366771 0.0012845123452711984
0.0 100.0 0.0
0.0 0.0 100.0
199.6796687961033 -0.9966163863322829 100.00128451234528
200.3203312038967 99.00338361366772 99.99871548765474
0.0 100.0 100.0
9.96424877502385 -0.01933151422995148 -0.025656591235357806
19.936173204323087 -0.03230273135578828 -0.03347219235212658
29.91080291293227 -0.05221062317218323 -0.03755744176433772
39.88628184640642 -0.07778222449846472 -0.0386094293932771
49.862715129967626 -0.10897978935526244 -0.03805485124444416
59.840241404450445 -0.14536338299567858 -0.03654007817730148
69.81902190404399 -0.18651803144976817 -0.034476304888676035
79.79917649258738 -0.2320365925506269 -0.03210445882814054
89.78079122385127 -0.2815351551827809 -0.02956794487939641
99.76392464777963 -0.3346486037917754 -0.02695017445200208
109.74861540746687 -0.39102509386752393 -0.024299557653603747
119.7348877089794 -0.4503201850298629 -0.021645329094732716
129.7227542710238 -0.5121921279934992 -0.019007775221148278
139.71221586728612 -0.5762993007500992 -0.01640473328035575
149.7032561093237 -0.6423025022583067 -0.01385491114954573
159.69582913514336 -0.7098804919214999 -0.01137708745032267
169.68984118943075 -0.7787763869210398 -0.008975583261074867
179.68512915857505 -0.8489471846317825 -0.0066135590927341005
189.68155982089394 -0.9208332520201389 -0.00399871295675215
199.75159730147575 9.00528514567249 0.0005364032768110622
199.8179215799678 19.008353941100815 0.0017098004112855564
199.88058195102727 29.011082996132462 0.0017348680531726812
199.94086816004545 39.01288663528443 0.0010474672926700345
199.99999999999895 49.01351389821369 2.0860970091823644e-14
200.05913183995247 59.01288663525175 -0.0010474672926351991
200.11941804897089 69.01108299610621 -0.001734868053158796
200.18207842003093 79.00835394107736 -0.0017098004112940253
200.2484026985236 89.00528514565623 -0.0005364032768266515
190.3184401791225 99.07916674797893 0.003998712956717973
180.31487084145778 99.15105281536643 0.006613559092672988
170.31015881061853 99.22122361307633 0.008975583260985466
160.30417086492238 99.29011950807507 0.011377087450199021
150.29674389075873 99.35769749773749 0.013854911149386672
140.2877841328127 99.42370069924499 0.016404733280160507
130.2772457290918 99.48780787200096 0.019007775220917587
120.26511229115276 99.54967981496468 0.021645329094492082
110.2513845926817 99.60897490612736 0.024299557653365268
100.23607535238543 99.66535139620346 0.026950174451769005
90.21920877633023 99.71846484481284 0.029567944879171675
80.2008235076106 99.7679634074454 0.03210445882792926
70.18097809615152 99.81348196854675 0.03447630488849049
60.15975859570191 99.85463661700159 0.03654007817716411
50.137284870165374 99.89102021064278 0.038054851244369275
40.113718153707154 99.92221777550023 0.038609429393271166
30.089197087161878 99.94778937682705 0.03755744176440058
20.06382679574276 99.96769726864383 0.03347219235223783
10.035751225007058 99.98066848576988 0.025656591235485738
0.0 90.00000000007105 0.0
0.0 80.00000000014211 0.0
0.0 70.00000000021316 0.0
0.0 60.00000000025813 0.0
0.0 50.00000000025813 0.0
0.0 40.00000000025814 0.0
0.0 30.00000000021316 0.0
0.0 20.00000000014211 0.0
0.0 10.00000000007105 0.0
9.96424877502385 -0.01933151422995144 100.02565659123536
19.936173204323087 -0.03230273135578816 100.03347219235212
29.91080291293227 -0.052210623172183 100.03755744176433
39.88628184640642 -0.07778222449846454 100.03860942939328
49.862715129967626 -0.10897978935526215 100.03805485124444
59.840241404450445 -0.14536338299567825 100.0365400781773
69.81902190404399 -0.18651803144976803 100.03447630488867
79.79917649258738 -0.2320365925506264 100.03210445882814
89.78079122385127 -0.28153515518278005 100.0295679448794
99.76392464777963 -0.33464860379177425 100.026950174452
109.74861540746687 -0.39102509386752277 100.0242995576536
119.7348877089794 -0.4503201850298612 100.02164532909474
129.7227542710238 -0.5121921279934971 100.01900777522116
139.71221586728612 -0.5762993007500972 100.01640473328035
149.7032561093237 -0.6423025022583057 100.01385491114955
159.69582913514336 -0.7098804919214988 100.01137708745033
169.68984118943075 -0.778776386921038 100.00897558326108
179.68512915857505 -0.8489471846317808 100.00661355909274
189.68155982089394 -0.9208332520201373 100.00399871295676
199.75159730147575 9.005285145672492 99.99946359672319
199.8179215799678 19.008353941100818 99.99829019958872
199.88058195102724 29.011082996132462 99.99826513194682
199.94086816004543 39.01288663528443 99.99895253270734
199.99999999999895 49.01351389821369 99.99999999999999
200.05913183995244 59.01288663525176 100.00104746729264
200.11941804897089 69.01108299610623 100.00173486805316
200.18207842003093 79.00835394107737 100.00170980041129
200.24840269852356 89.00528514565625 100.00053640327683
190.3184401791225 99.07916674797895 99.99600128704328
180.31487084145778 99.15105281536644 99.99338644090733
170.31015881061853 99.22122361307633 99.99102441673901
160.30417086492236 99.29011950807507 99.9886229125498
150.29674389075873 99.35769749773749 99.9861450888506
140.28778413281267 99.42370069924499 99.98359526671983
130.2772457290918 99.48780787200096 99.98099222477909
120.26511229115276 99.54967981496468 99.9783546709055
110.2513845926817 99.60897490612736 99.97570044234664
100.23607535238543 99.66535139620346 99.97304982554823
90.21920877633023 99.71846484481284 99.97043205512082
80.2008235076106 99.7679634074454 99.96789554117207
70.18097809615152 99.81348196854675 99.96552369511151
60.15975859570191 99.85463661700159 99.96345992182283
50.137284870165374 99.89102021064278 99.96194514875563
40.113718153707154 99.92221777550023 99.96139057060672
30.08919708716188 99.94778937682705 99.9624425582356
20.06382679574276 99.96769726864383 99.96652780764776
10.035751225007058 99.98066848576988 99.97434340876451
0.0 90.00000000007105 100.0
0.0 80.00000000014211 100.0
0.0 70.00000000021316 100.0
0.0 60.00000000025813 100.0
0.0 50.00000000025813 100.0
0.0 40.00000000025814 100.0
0.0 30.00000000021316 100.0
0.0 20.00000000014211 100.0
0.0 10.00000000007105 100.0
0.0 0.0 10.0
0.0 0.0 20.0
0.0 0.0 30.0
0.0 0.0 40.0
0.0 0.0 50.0
0.0 0.0 60.0
0.0 0.0 70.0
0.0 0.0 80.0
0.0 0.0 90.0
199.67755498118902 -0.9980119008744012 9.998678460188534
199.67639122999492 -0.9988685764040577 19.99871955178063
199.67575449157545 -0.9994773234814066 29.998970313148142
199.67543163495822 -0.9998653725570295 39.99942620678955
199.67533258033816 -0.999999999999998 50.0
199.67543163495822 -0.9998653725570268 60.00057379321045
199.67575449157547 -0.9994773234814042 70.00102968685187
199.67639122999492 -0.9988685764040551 80.00128044821938
199.67755498118902 -0.9980119008743987 90.00132153981147
200.32244501881098 99.0019880991256 10.001321539811466
200.32360877000505 99.00113142359594 20.00128044821937
200.32424550842453 99.0005226765186 30.00102968685186
200.32456836504178 99.00013462744297 40.00057379321045
200.32466741966184 99.0 50.0
200.32456836504178 99.00013462744297 59.99942620678955
200.32424550842453 99.0005226765186 69.99897031314813
200.32360877000505 99.00113142359595 79.99871955178064
200.32244501881095 99.0019880991256 89.99867846018854
0.0 100.0 10.0
0.0 100.0 20.0
0.0 100.0 30.0
0.0 100.0 40.0
0.0 100.0 50.0
0.0 100.0 60.0
0.0 100.0 70.0
0.0 100.0 80.0
0.0 100.0 90.0
9.975602546227718 9.990922242653237 -0.020243978389142585
9.982643567962482 19.995587133612716 -0.015459725021451133
9.988805402042408 29.99790752713342 -0.010348629822874777
9.994491003270484 39.99904003728342 -0.005181309417512969
10.00000000001541 49.999380005288444 1.2093450125430537e-13
10.005508996760362 59.99904003728174 0.005181309417761959
10.011194597988426 69.99790752713199 0.010348629823098216
10.017356432068361 79.9955871336114 0.015459725021633135
10.024397453803159 89.9909222426522 0.02024397838930343
19.952895985874328 9.975406695249733 -0.026986309621340066
19.967110419336887 19.9816696254676 -0.02040489743716211
19.97893347890629 29.985512921950587 -0.013748673544106853
19.98969814574785 39.98755552269417 -0.0069088682716436185
20.00000000003286 49.9881940649145 1.4676458703777989e-13
20.01030185431789 59.987555522690755 0.006908868271942262
20.021066521159465 69.9855129219477 0.013748673544364282
20.03288958072888 79.9816696254649 0.020404897437361076
20.047104014191493 89.9754066952477 0.026986309621493093
29.93263503398994 9.955302227837635 -0.029991479258371617
29.95207941805613 19.96127240032658 -0.022729911581636557
29.969273539412637 29.96555751241516 -0.01526926484388201
29.984973476469744 39.968023180343714 -0.007677634292208815
30.00000000004695 49.968822633691055 1.475046328822525e-13
30.015026523624204 59.968023180338584 0.0076776342925063985
30.030726460681336 69.96555751241078 0.01526926484413111
30.047920582037868 79.96127240032249 0.02272991158181581
30.067364966104126 89.95530222783451 0.02999147925848993
39.913267751645364 9.92935208883553 -0.030795882870930134
39.93758781696081 19.935045131212167 -0.02324374706257733
39.95968429047837 29.939203065389883 -0.015599864572714622
39.98023065027974 39.941717336421156 -0.00783325275017177
40.000000000056566 49.942552100360636 1.3432651956994746e-13
40.01976934983345 59.94171733641428 0.007833252750440316
40.04031570963489 69.93920306538398 0.015599864572930907
40.062412183152496 79.93504513120658 0.023243747062718353
40.08673224846804 89.92935208883114 0.030795882871001226
49.89468665113519 9.897829398545175 -0.030340153023810938
49.92367593851471 19.903198598240973 -0.022842621392126887
49.95041560722181 29.90712157544799 -0.015297849214625273
49.9756024501662 39.909511861626235 -0.007674538667520346
50.000000000066194 49.91031449552478 1.1561308067336644e-13
50.024397549966245 59.909511861617595 0.0076745386677488266
50.049584392910695 69.9071215754405 0.015297849214800228
[...]
POINT_DATA 2541
SCALARS STRESS_EQV float 1
LOOKUP_TABLE default
99.03911811569039
11.266423978645419
11.266423978697029
99.03911811581317
99.03911811569036
11.266423978645758
11.266423978693785
99.03911811581334
98.34886341884315
92.75619710830713
85.6977534014663
81.49097837328813
77.37183278251977
73.09379809594401
68.54236681651747
63.75296002882099
58.781539153138525
53.68239914359092
48.49956341592803
43.26796472715989
38.01799907497562
32.782164150021124
27.60304684978452
22.53852024299337
17.673998005461872
13.117698403743763
11.098488402401994
14.895306981601873
19.973196231583586
21.93705172229898
22.60118319971612
22.750465433444248
22.601183199723167
21.937051722323822
19.973196231641438
14.895306981666614
11.098488402396665
13.117698403642866
17.67399800529
22.5385202427565
27.603046849482315
32.78216414965652
38.01799907456541
43.26796472673585
48.49956341551453
53.68239914319791
58.78153915277099
63.752960028486456
68.542366816233
73.09379809572873
77.37183278238047
81.49097837321675
85.69775340143761
92.75619710833634
98.34886341894205
82.807550395144
55.80934404990677
35.64183745054697
17.454841254700046
8.668713033213773
17.454841253859854
35.641837449803226
55.809344049326484
82.80755039483697
98.34886341884317
92.75619710830716
85.69775340146633
81.49097837328807
77.3718327825197
73.09379809594421
68.54236681651784
63.75296002882126
58.781539153139065
53.682399143591525
48.49956341592832
43.26796472716043
38.01799907497597
32.78216415002095
27.603046849784675
22.538520242993496
17.67399800546166
13.117698403744185
11.098488402402609
14.895306981601756
19.973196231584044
21.937051722300644
22.601183199718484
22.750465433446134
22.601183199723152
21.937051722322526
19.97319623163956
14.89530698166395
11.098488402393606
13.11769840364014
17.673998005287874
22.53852024275472
27.60304684948062
32.782164149654626
38.01799907456347
43.26796472673402
48.49956341551328
53.68239914319752
58.78153915277073
63.75296002848623
68.54236681623257
73.09379809572837
77.37183278238035
81.4909783732167
85.69775340143767
92.75619710833647
98.34886341894219
82.80755039514418
55.809344049906926
35.64183745054712
17.45484125470017
8.668713033213784
17.454841253859794
35.64183744980321
55.8093440493265
82.80755039483695
93.59508496497799
87.42269796016903
86.62819970847261
86.62281048076535
86.68356565065795
86.62281048076528
86.62819970847252
87.42269796016896
93.59508496497794
11.352710460417484
11.459149887752318
11.504458647785407
11.55076151213109
11.571908562005943
11.550761512129665
11.504458647784276
11.459149887751902
11.352710460417455
11.352710460467724
11.459149887800336
11.504458647831868
11.550761512176857
11.571908562051881
11.550761512175928
11.504458647830965
11.459149887799041
11.35271046046513
93.59508496514559
87.42269796037955
86.62819970867989
86.62281048097051
86.68356565086235
86.62281048097057
86.62819970867999
87.42269796037962
93.5950849651457
84.12658296699266
58.60382300101766
37.76219082050302
19.980332199588574
11.739626245411614
19.980332200330444
37.76219082123373
58.60382300159088
84.12658296727915
81.9487310662503
60.465268010712194
40.65799329412774
24.60751854315382
17.688321495497988
24.607518543707386
40.65799329476502
60.46526801119538
81.94873106644947
76.51113675383074
58.433177794579315
41.55780034663243
27.94052149320707
22.307277776254917
27.940521493611598
41.55780034712059
58.43317779492237
76.51113675393361
72.78296921035697
56.179559357394446
41.35446875410132
29.718518353872838
25.01225786700762
29.718518354172566
41.35446875446561
56.179559357636144
72.78296921039694
69.21186214302422
53.8498608464172
40.549824998645526
30.49218861525981
26.532557422606928
30.49218861547873
40.549824998910154
53.84986084657475
69.21186214299378
65.53681265212987
51.42802763145188
39.50193077435196
30.782349360388345
27.43706522671207
30.78234936054369
39.50193077453286
51.42802763153061
65.53681265202415
61.63921128695275
48.85219219910589
38.2878547422838
30.807603159785653
28.007825475862003
30.807603159888664
38.28785474239161
48.85219219911127
61.63921128677656
57.53088869873939
46.12191413648369
36.94495505198125
30.661157446478303
28.367415693325363
30.66115744654003
36.9449550520301
46.121914136429844
57.530888698509486
53.257009303139064
43.26826620573959
35.507289143320456
30.395359630308718
28.580193932328406
30.395359630339875
35.50728914332493
43.268266205641886
53.25700930287198
48.868056680175485
40.333972941023234
34.01269689358028
30.051394487012637
28.691626852156872
30.05139448702146
34.01269689355151
40.33397294089227
48.86805667987988
44.40788540204076
37.36039915288748
32.49839978736019
29.666874644647798
28.741540632198596
29.666874644642775
32.49839978730944
37.360399152732576
44.40788540172293
39.911148145633526
34.381251129461575
30.99762335586334
29.278398761808035
28.76972150670501
29.27839876179519
30.997623355799714
34.381251129291556
39.91114814530263
35.40414008456735
31.420167958627754
29.53963063017045
28.924619504972235
28.820032572699706
28.924619504960123
29.53963063010748
31.42016795845834
35.40414008424398
30.90773186667204
28.49302779901867
28.155167084274296
28.649347394326877
28.941116634821572
28.649347394324174
28.155167084228346
28.4930277988719
30.907731866384182
26.444956483488006
25.622472114991176
26.890015524961296
28.49688646955653
29.171820001986905
28.49688646956905
26.890015524945248
25.622472114883426
26.44495648325214
22.065493445534063
22.885143136860012
25.823011407094015
28.474912330020008
29.481621471507612
28.47491233005222
25.823011407117114
22.885143136801737
22.06549344535611
17.934217337539963
20.523647849609734
25.043015601261523
28.424463128141216
29.61575408337439
28.424463128189185
25.043015601324473
20.523647849614015
17.934217337429736
14.579032490297257
19.116726742410567
24.41028597644155
27.71882858144992
28.810172117999766
27.71882858149935
24.410285976526083
19.116726742478477
14.579032490266972
14.045291182432816
19.36215390229552
23.011555582728157
24.841588639831162
25.39227995633941
24.841588639857235
23.01155558278409
19.3621539023725
14.04529118247127
95.58163359672511
91.5487552298322
89.95350214671012
89.53776281254021
89.45162801671745
89.5377628125401
89.95350214671
91.54875522983212
95.58163359672511
93.69737340357952
93.48679370807427
91.69368694513066
90.77626818011389
90.50020018726309
90.77626818011372
91.69368694513047
93.48679370807417
93.69737340357949
87.5065787347201
89.21181720644906
88.63837136469131
87.90223257366019
87.63595276286192
87.90223257366009
88.63837136469112
89.21181720644888
87.50657873472008
82.93155053831542
84.75843508529508
85.0492575668001
84.81969011705746
84.68561256776216
84.81969011705742
85.04925756679997
84.75843508529498
82.93155053831536
78.41391136106579
79.92687237872406
80.51693770161882
80.63009076376889
80.62406094213652
80.63009076376896
80.51693770161887
79.92687237872408
78.41391136106574
73.79549508119733
74.91363428817093
75.51725078450971
75.76356082202157
75.82269658491482
75.76356082202152
75.51725078450986
74.91363428817094
73.79549508119733
68.9933752786344
69.76412717580499
70.26369951903236
70.51837841007163
70.59322839293716
70.51837841007155
70.26369951903231
69.76412717580502
68.99337527863462
64.02789025446513
64.52843733141256
64.89740855478942
65.10734585138215
65.17392877590149
65.1073458513825
64.89740855478968
64.52843733141279
64.0278902544654
58.93726264648971
59.24194134078736
59.493581373291896
59.64685637764393
59.69744655043795
59.64685637764427
59.49358137329243
59.241941340787754
58.937262646490126
53.7596222688501
53.929580164031755
54.090688953096524
54.19408833163672
54.2291136910346
54.19408833163685
54.09068895309687
53.92958016403227
53.75962226885072
48.526560151770404
48.60879063056518
48.70777432911994
48.77461621487063
48.797708145018746
48.77461621487029
48.70777432911992
48.60879063056554
48.52656015177081
43.26443278552596
43.294509342626654
43.35697369135504
43.40131139880898
43.41679325626881
43.401311398808346
43.35697369135489
43.294509342627016
43.26443278552646
37.99878980425295
38.00479948935022
38.05224669503868
38.08603956010267
38.09760417529805
38.08603956010252
38.05224669503876
38.00479948935066
37.99878980425341
32.76088096958591
32.76715933204568
32.815963016323536
32.84699968846358
32.85679421922079
32.846999688463725
32.81596301632341
32.7671593320454
32.76088096958576
27.59527183204546
27.62448844193649
27.683325813488928
27.713240095256193
27.721308633100918
27.71324009525577
27.68332581348822
27.624488441935764
27.595271832045285
22.563311943486173
22.63440367839059
22.70031566933459
22.725107648435195
22.73028767100321
22.725107648434467
22.700315669333726
22.6344036783901
22.563311943486084
17.7453724449148
17.86330592561487
17.925262374032897
17.944356546969466
17.948053312734995
17.94435654696879
17.925262374031917
17.863305925614117
17.745372444914395
13.227676298733128
13.382395443207693
13.448406068604367
13.481290226090428
13.492905007664834
13.481290226089785
13.44840606860359
13.382395443207123
13.227676298733085
11.203375405817656
11.341374478151486
11.401579111048015
11.44887490557435
11.469078136122043
11.448874905573488
11.401579111047328
11.341374478151264
11.203375405817848
14.896176967573915
14.856412399398721
14.800725354901399
14.785311719754343
14.784950574957277
14.78531171975377
14.800725354900734
14.856412399398252
14.896176967573577
19.800005809256366
19.50670939051971
19.312343734949675
19.205744401377743
19.173404726966915
19.20574440137809
19.312343734949092
19.506709390519315
19.80000580925663
21.589965512983802
21.09170500378988
20.840445243864682
20.693626895040374
20.646894006263395
20.693626895041696
20.840445243864597
21.091705003789375
21.589965512984662
22.117208411871644
21.459678699535345
21.176650425344963
21.01563230234328
20.96408752904056
21.015632302344567
21.176650425345997
21.459678699535058
22.117208411872387
22.214853941557873
21.495691261483966
21.20010577084141
21.035637689981858
20.98320391157726
21.035637689981673
21.200105770841343
21.495691261483586
22.214853941558385
22.117208411875097
21.459678699535253
21.17665042534531
21.015632302343043
20.96408752903824
21.015632302340883
21.176650425343123
21.459678699534322
22.117208411874895
21.58996551300516
21.091705003807178
20.84044524388201
20.693626895058138
20.646894006278657
20.693626895054628
20.84044524387867
21.091705003805224
21.58996551300385
19.800005809312438
19.506709390573395
19.312343735002504
19.205744401430664
19.173404727018593
19.20574440142777
19.312343734999
19.506709390570286
19.800005809310075
14.896176967637407
14.856412399460286
14.800725354961585
14.78531171981399
14.784950575016625
14.785311719812343
14.800725354959493
14.85641239945802
14.89617696763481
11.20337540581104
11.341374478142482
11.401579111037524
11.448874905563962
11.469078136112094
11.448874905563153
11.401579111036783
11.341374478141379
11.20337540580867
13.227676298631767
13.382395443104691
13.448406068500116
13.481290225986442
13.492905007561204
13.48129022598577
13.448406068499029
13.382395443103162
13.227676298629452
17.745372444743666
17.86330592544376
17.925262373860726
17.94435654679677
17.94805331256228
17.944356546796364
17.92526237385978
17.863305925442486
17.745372444741864
22.563311943250454
22.634403678155827
22.700315669098977
22.725107648198815
22.73028767076702
22.725107648198925
22.70031566909883
22.634403678155113
22.563311943249005
27.595271831743837
27.624488441635744
27.683325813188368
27.713240094955044
27.721308632799584
27.713240094955182
27.683325813188084
27.62448844163466
27.59527183174223
32.76088096922108
32.767159331680915
32.81596301595928
32.84699968809913
32.856794218855775
32.84699968809859
32.81596301595849
32.767159331680006
32.760880969219606
37.99878980384229
38.00479948893886
38.05224669462656
38.086039559689674
38.097604174884765
38.08603955968918
38.05224669462561
38.00479948893787
37.9987898038408
43.264432785100595
43.29450934219906
43.356973690925415
43.40131139837731
43.4167932558369
43.40131139837749
43.356973690924676
43.29450934219787
43.26443278509909
48.52656015135402
48.608790630144
48.70777432869538
48.7746162144436
48.79770814459107
48.77461621444361
48.70777432869478
48.608790630143126
48.526560151352975
53.75962226845252
53.92958016362613
54.090688952685376
54.19408833122243
54.22911369061918
54.19408833122198
54.0906889526847
53.92958016362559
53.75962226845208
58.93726264611533
59.24194134040125
59.49358137289814
59.64685637724624
59.69744655003894
59.64685637724583
59.493581372897495
59.241941340400786
58.93726264611506
64.02789025412069
64.52843733105206
64.89740855441995
65.10734585100896
65.1739287755272
65.10734585100877
64.8974085544194
64.52843733105152
64.02789025412038
68.99337527833605
69.7641271754861
70.2636995187051
70.51837840974252
70.59322839260797
70.51837840974235
70.26369951870477
69.76412717548568
68.99337527833558
73.79549508096466
74.91363428791581
75.51725078425055
75.76356082176517
75.82269658466026
75.76356082176501
75.51725078425032
74.91363428791553
73.79549508096429
78.4139113609078
79.92687237854653
80.51693770144581
80.63009076360547
80.62406094197729
80.63009076360545
80.51693770144558
79.92687237854624
78.41391136090762
82.93155053822815
84.75843508519878
85.04925756672021
84.81969011699206
84.6856125677017
84.819690116992
85.04925756672014
84.7584350851987
82.9315505382281
87.50657873468847
89.21181720643006
88.63837136469654
87.90223257367668
87.635952762881
87.9022325736766
88.63837136469657
89.21181720643017
87.50657873468857
93.6973734036298
93.48679370816191
91.6936869452361
90.7762681802202
90.50020018736878
90.77626818022024
91.69368694523614
93.48679370816201
93.69737340362994
95.58163359686387
91.54875523001634
89.95350214689768
89.53776281272424
89.45162801690014
89.5377628127243
89.95350214689776
91.54875523001643
95.58163359686398
77.62925282484552
71.52059605871835
70.39059619914933
70.17753009428642
70.16410465316386
70.17753009428648
70.3905961991494
71.52059605871841
77.62925282484564
51.53993221471626
46.29630047485453
45.04094988338784
44.68973420242959
44.61964920826685
44.68973420242963
45.04094988338787
46.29630047485459
51.53993221471637
32.91286300035229
29.704619975275513
29.155089337117822
29.095110522873533
29.105393771904854
29.09511052287354
29.155089337117836
29.704619975275556
32.91286300035239
16.91917906669456
16.808840810469793
17.57549822056515
18.087933722612217
18.259035746344654
18.087933722612217
17.57549822056513
16.80884081046978
16.91917906669462
9.42907587723432
11.182548462830901
12.769724843888817
13.632865096589047
13.901938709807391
13.632865096589022
12.769724843888763
11.182548462830825
9.429075877234283
16.919179065988867
16.808840809950862
17.575498220120437
18.087933722197754
18.25903574593847
18.087933722197715
17.575498220120387
16.808840809950787
16.91917906598879
32.912862999665144
29.704619974670678
29.15508933655106
29.095110522324077
29.105393771360326
29.09511052232407
29.15508933655105
29.704619974670653
32.91286299966512
51.53993221414423
46.29630047429764
45.04094988284066
44.68973420188625
44.61964920772449
44.68973420188626
45.04094988284065
46.29630047429763
51.539932214144244
77.62925282450843
71.52059605835167
70.3905961987833
70.17753009392068
70.1641046527982
70.17753009392065
70.39059619878324
71.52059605835163
77.62925282450841
84.12658296699269
58.60382300101766
37.76219082050297
19.980332199588478
11.739626245411548
19.980332200330487
37.76219082123384
58.603823001591024
84.1265829672793
81.94873106625032
60.46526801071217
40.657993294127664
24.60751854315366
17.68832149549784
24.607518543707336
40.65799329476507
60.46526801119548
81.94873106644958
76.51113675383067
58.43317779457921
41.55780034663233
27.940521493206894
22.307277776254757
27.940521493611534
41.557800347120605
58.43317779492237
76.51113675393364
72.78296921035688
56.17955935739438
41.35446875410125
29.7185183538727
25.012257867007442
29.718518354172446
41.35446875446556
56.17955935763605
72.78296921039686
69.21186214302422
53.84986084641727
40.54982499864555
30.492188615259696
26.532557422606708
30.49218861547851
40.54982499890994
53.84986084657452
69.21186214299361
65.53681265213002
51.42802763145199
39.50193077435193
30.782349360388096
27.43706522671163
30.78234936054318
39.50193077453237
51.4280276315302
65.53681265202378
61.639211286953
48.852192199106014
38.28785474228372
30.807603159785277
28.00782547586136
30.807603159887922
38.28785474239097
48.85219219911068
61.639211286776046
57.530888698739574
46.121914136483795
36.94495505198115
30.661157446477894
28.36741569332478
30.6611574465392
36.94495505202911
46.12191413642893
57.53088869850896
53.257009303139505
43.26826620573985
35.507289143320406
30.395359630308274
28.580193932327806
30.395359630339193
35.50728914332402
43.26826620564102
53.25700930287149
48.868056680176075
40.33397294102366
34.012696893580404
30.05139448701251
28.691626852156613
30.051394487021206
34.0126968935512
40.3339729408918
48.8680566798794
44.407885402040975
37.360399152887545
32.498399787360576
29.66687464464865
28.741540632199246
29.666874644642913
32.49839978730912
37.360399152731894
44.4078854017219
39.91114814563372
34.38125112946134
30.997623355863368
29.278398761808447
28.76972150670577
29.27839876179611
30.99762335580003
34.38125112929117
39.91114814530141
35.40414008456722
31.420167958627317
29.539630630170194
28.924619504971936
28.82003257269951
28.924619504959967
29.53963063010754
31.42016795845799
35.40414008424247
30.907731866671796
28.49302779901872
28.15516708427449
28.64934739432672
28.94111663482119
28.649347394323478
28.15516708422801
28.493027798871427
30.907731866382644
26.44495648348847
25.62247211499208
26.890015524962138
28.496886469556845
29.171820001986994
28.496886469569013
26.890015524944918
25.622472114882708
26.444956483250774
22.065493445534354
22.885143136860332
25.823011407094278
28.47491233002045
29.48162147150811
28.47491233005231
25.82301140711672
22.88514313680116
22.065493445354903
17.93421733753983
20.52364784960962
25.043015601261224
28.424463128141078
29.61575408337491
28.42446312819004
25.043015601324917
20.523647849613468
17.934217337428088
14.579032490297317
19.11672674241051
24.410285976441365
27.718828581449262
28.81017211799935
27.718828581499466
24.410285976526207
19.116726742477834
14.579032490264995
14.045291182432823
19.36215390229559
23.01155558272869
24.841588639831745
25.392279956339838
24.841588639856813
23.011555582783235
19.362153902371613
14.04529118246928
81.5633999470424
77.7784734807521
76.21499414098254
75.7724192077662
75.67158016797939
75.77241920776613
76.21499414098245
77.77847348075207
81.5633999470424
56.61773473141675
53.668531374031794
52.43100292256314
52.072658351835855
51.988727144793174
52.07265835183587
52.431002922563124
53.66853137403177
56.61773473141675
36.757657833794084
35.38286901436171
34.99056803199266
34.98810588785045
35.00768889335387
34.98810588785045
34.99056803199266
35.38286901436169
36.757657833794035
20.54072136534635
21.656717115767684
22.601177029832282
23.176859260211643
23.36368816118994
23.176859260211604
22.601177029832222
21.6567171157676
20.540721365346258
13.256430228861564
15.876567219394957
17.60673770570394
18.515747845540872
18.797920506152252
18.515747845540837
17.606737705703868
15.876567219394865
13.256430228861486
20.540721365995573
21.656717116277658
22.601177030276226
23.176859260628515
23.36368816159918
23.17685926062851
22.60117703027621
21.656717116277626
20.54072136599558
36.7576578344881
35.38286901499237
34.99056803258396
34.988105888423746
35.00768889392186
34.98810588842376
34.99056803258397
35.382869014992394
36.757657834488164
56.61773473199045
53.66853137459891
52.43100292311893
52.07265835238551
51.98872714534096
52.07265835238554
52.43100292311897
53.668531374598984
56.61773473199057
81.56339994735748
77.77847348109917
76.21499414133137
75.77241920811247
75.67158016832471
75.77241920811252
76.21499414133145
77.77847348109925
81.56339994735762
82.95425819012584
83.07612738032029
81.69735386857822
80.99093921392125
80.77964013732522