# vtk DataFile Version 2.0
mesh vtk view
ASCII
DATASET UNSTRUCTURED_GRID
POINTS 101 double
0.0 0.0 0.0
1.0 0.0 0.0
0.009999999999981052 0.01934883556853021 0.0
0.01999999999996226 0.03839252844186597 0.0
0.02999999999994291 0.056830748207254256 0.0
0.03999999999992165 0.07437271312453418 0.0
0.04999999999989939 0.09074177592790644 0.0
0.05999999999987805 0.1056797867185747 0.0
0.06999999999986013 0.11895116414287292 0.0
0.07999999999984476 0.13034661065091632 0.0
0.08999999999982944 0.13968641324398173 0.0
0.09999999999981413 0.14682327765585723 0.0
0.1099999999997988 0.15164465127141433 0.0
0.1199999999997825 0.1540744981485758 0.0
0.1299999999997603 0.15407449815056298 0.0
0.1399999999997321 0.15164465127732926 0.0
0.1499999999997028 0.14682327766554618 0.0
0.1599999999996737 0.1396864132571751 0.0
0.1699999999996445 0.1303466106672696 0.0
0.1799999999996153 0.11895116416199412 0.0
0.1899999999995861 0.10567978674002465 0.0
0.1999999999995569 0.09074177595120062 0.0
0.2099999999995277 0.0743727131491677 0.0
0.2199999999994985 0.05683074823266516 0.0
0.2299999999994693 0.038392528467407476 0.0
0.2399999999994402 0.01934883559347533 0.0
0.2499999999994109 2.359937760036966e-11 0.0
0.2599999999993817 -0.0193488355468786 0.0
0.2699999999993525 -0.03839252842262398 0.0
0.2799999999993234 -0.05683074819086225 0.0
0.2899999999992942 -0.07437271311139378 0.0
0.299999999999265 -0.09074177591835247 0.0
0.3099999999992358 -0.10567978671285266 0.0
0.3199999999992066 -0.11895116414110436 0.0
0.3299999999991775 -0.1303466106531113 0.0
0.3399999999991483 -0.13968641325003595 0.0
0.349999999999119 -0.1468232776655324 0.0
0.3599999999990898 -0.15164465128437238 0.0
0.3699999999990606 -0.15407449816439647 0.0
0.3799999999990315 -0.15407449816873436 0.0
0.3899999999990023 -0.151644651297264 0.0
0.3999999999989731 -0.1468232776866387 0.0
0.4099999999989439 -0.13968641327884262 0.0
0.4199999999989147 -0.13034661068894277 0.0
0.4299999999988856 -0.11895116418310274 0.0
0.4399999999988564 -0.10567978676001326 0.0
0.4499999999988272 -0.09074177596955345 0.0
0.4599999999987979 -0.07437271316541776 0.0
0.4699999999987687 -0.056830748246440424 0.0
0.4799999999987396 -0.03839252847844241 0.0
0.4899999999987104 -0.01934883560159777 0.0
0.4999999999986921 -2.8699556975982124e-11 0.0
0.5099999999987076 0.019348835544860853 0.0
0.5199999999987339 0.03839252842359614 0.0
0.5299999999987604 0.056830748194623595 0.0
0.5399999999987867 0.07437271311768337 0.0
0.549999999998813 0.09074177592686342 0.0
0.5599999999988394 0.10567978672327047 0.0
0.5699999999988659 0.11895116415312786 0.0
0.5799999999988923 0.13034661066644476 0.0
0.5899999999989186 0.13968641326440007 0.0
0.5999999999989449 0.14682327768068326 0.0
0.6099999999989714 0.1516446513000704 0.0
0.6199999999989977 0.1540744981803999 0.0
0.6299999999990241 0.1540744981848071 0.0
0.6399999999990504 0.15164465131315583 0.0
0.6499999999990768 0.1468232777020487 0.0
0.6599999999991032 0.13968641329342718 0.0
0.6699999999991295 0.1303466107023225 0.0
0.679999999999156 0.1189511641948669 0.0
0.6899999999991824 0.1056797867697888 0.0
0.6999999999992087 0.09074177597702501 0.0
0.7099999999992351 0.07437271317029272 0.0
0.7199999999992615 0.05683074824844917 0.0
0.7299999999992879 0.038392528477358176 0.0
0.7399999999993142 0.01934883559729438 0.0
0.7499999999993405 2.1130797026427506e-11 0.0
0.759999999999367 -0.019348835555653074 0.0
0.7699999999993933 -0.03839252843750214 0.0
0.7799999999994197 -0.05683074821145882 0.0
0.789999999999446 -0.07437271313717793 0.0
0.7999999999994724 -0.0907417759486337 0.0
0.8099999999994988 -0.10567978674682178 0.0
0.8199999999995252 -0.1189511641778961 0.0
0.8299999999995517 -0.1303466106917975 0.0
0.839999999999578 -0.13968641328967346 0.0
0.8499999999996044 -0.14682327770517678 0.0
0.8599999999996307 -0.1516446513230684 0.0
0.869999999999657 -0.15407449820123165 0.0
0.8799999999996835 -0.15407449820285798 0.0
0.8899999999997098 -0.15164465132790483 0.0
0.8999999999997362 -0.1468232777131028 0.0
0.9099999999997626 -0.13968641330050607 0.0
0.9199999999997889 -0.13034661070529388 0.0
0.9299999999998153 -0.11895116419377857 0.0
0.9399999999998417 -0.10567978676479485 0.0
0.9499999999998682 -0.0907417759683479 0.0
0.9599999999998945 -0.07437271315823475 0.0
0.9699999999999208 -0.056830748233388996 0.0
0.9799999999999472 -0.03839252845975077 0.0
0.9899999999999736 -0.019348835577640593 0.0

CELLS 100 300
2 0 2
2 2 3
2 3 4
2 4 5
2 5 6
2 6 7
2 7 8
2 8 9
2 9 10
2 10 11
2 11 12
2 12 13
2 13 14
2 14 15
2 15 16
2 16 17
2 17 18
2 18 19
2 19 20
2 20 21
2 21 22
2 22 23
2 23 24
2 24 25
2 25 26
2 26 27
2 27 28
2 28 29
2 29 30
2 30 31
2 31 32
2 32 33
2 33 34
2 34 35
2 35 36
2 36 37
2 37 38
2 38 39
2 39 40
2 40 41
2 41 42
2 42 43
2 43 44
2 44 45
2 45 46
2 46 47
2 47 48
2 48 49
2 49 50
2 50 51
2 51 52
2 52 53
2 53 54
2 54 55
2 55 56
2 56 57
2 57 58
2 58 59
2 59 60
2 60 61
2 61 62
2 62 63
2 63 64
2 64 65
2 65 66
2 66 67
2 67 68
2 68 69
2 69 70
2 70 71
2 71 72
2 72 73
2 73 74
2 74 75
2 75 76
2 76 77
2 77 78
2 78 79
2 79 80
2 80 81
2 81 82
2 82 83
2 83 84
2 84 85
2 85 86
2 86 87
2 87 88
2 88 89
2 89 90
2 90 91
2 91 92
2 92 93
2 93 94
2 94 95
2 95 96
2 96 97
2 97 98
2 98 99
2 99 100
2 100 1

CELL_TYPES 100
3
3
3
3
3
3
3
3
3
3
3
3
3
3
3
3
3
3
3
3
3
3
3
3
3
3
3
3
3
3
3
3
3
3
3
3
3
3
3
3
3
3
3
3
3
3
3
3
3
3
3
3
3
3
3
3
3
3
3
3
3
3
3
3
3
3
3
3
3
3
3
3
3
3
3
3
3
3
3
3
3
3
3
3
3
3
3
3
3
3
3
3
3
3
3
3
3
3
3
3

POINT_DATA 101
SCALARS MODE4_3171.4664_Hz float 1
LOOKUP_TABLE default
0.0
0.0
0.022573641496618575
0.044791283182176955
0.06630253957512995
0.08676816531195652
0.10586540524922416
0.12329308450500379
0.13877635816668504
0.15207104575940233
0.16296748211797865
0.1712938239318334
0.17691875981665
0.1797535811733384
0.1797535811756568
0.17691875982355076
0.17129382394313716
0.16296748213337092
0.15207104577848116
0.13877635818899312
0.12329308453002873
0.1058654052764007
0.08676816534069563
0.066302539604776
0.044791283211975376
0.02257364152572121
2.7532607200431265e-11
-0.02257364147135836
-0.04479128315972797
-0.06630253955600594
-0.08676816529662605
-0.10586540523807787
-0.12329308449832808
-0.13877635816462172
-0.15207104576196315
-0.16296748212504192
-0.17129382394312112
-0.17691875983176775
-0.17975358119179585
-0.17975358119685672
-0.17691875984680797
-0.1712938239677451
-0.1629674821586497
-0.15207104580376654
-0.13877635821361983
-0.12329308455334878
-0.10586540529781234
-0.08676816535965404
-0.06630253962084715
-0.044791283224849474
-0.022573641535197395
-3.348281647197914e-11
0.022573641469004323
0.04479128316086215
0.06630253956039418
0.08676816530396392
0.1058654052480073
0.1232930845104822
0.13877635817864914
0.15207104577751887
0.16296748214180004
0.1712938239607971
0.1769187598500821
0.1797535812104665
0.17975358121560822
0.1769187598653484
0.17129382398572343
0.162967482175665
0.15207104581937622
0.1387763582273447
0.12329308456475357
0.10586540530652916
0.08676816536534149
0.06630253962319069
0.04479128322358453
0.022573641530176772
2.4652596530832084e-11
-0.022573641481595248
-0.04479128317708582
-0.06630253958003528
-0.08676816532670756
-0.10586540527340596
-0.12329308453795872
-0.1387763582075454
-0.15207104580709707
-0.16296748217128568
-0.17129382398937287
-0.1769187598769131
-0.17975358123477023
-0.17975358123666763
-0.1769187598825556
-0.1712938239986199
-0.16296748218392373
-0.15207104582284284
-0.13877635822607498
-0.1232930845589273
-0.10586540529640587
-0.08676816535127387
-0.06630253960562048
-0.044791283203042556
-0.022573641507247354

