# vtk DataFile Version 2.0
mesh vtk view
ASCII
DATASET UNSTRUCTURED_GRID
POINTS 101 double
0.0 0.0 0.0
1.0 0.0 0.0
0.009999999999981052 0.007264178054803756 0.0
0.01999999999996226 0.014463878750918127 0.0
0.02999999999994291 0.021535197035271774 0.0
0.03999999999992165 0.028415367386168195 0.0
0.04999999999989939 0.035043320924501686 0.0
0.05999999999987805 0.04136022746545107 0.0
0.06999999999986013 0.04731001769936423 0.0
0.07999999999984476 0.05283988086691739 0.0
0.08999999999982944 0.05790073351115515 0.0
0.09999999999981413 0.0624476551457309 0.0
0.1099999999997988 0.06644028697232264 0.0
0.1199999999997825 0.06984319010818443 0.0
0.1299999999997603 0.07262616014417697 0.0
0.1399999999997321 0.07476449524124469 0.0
0.1499999999997028 0.07623921538568715 0.0
0.1599999999996737 0.07703723085710054 0.0
0.1699999999996445 0.07715145841366683 0.0
0.1799999999996153 0.07658088416350901 0.0
0.1899999999995861 0.07533057256406571 0.0
0.1999999999995569 0.07341162146960947 0.0
0.2099999999995277 0.07084106362590353 0.0
0.2199999999994985 0.06764171548634616 0.0
0.2299999999994693 0.0638419746915185 0.0
0.2399999999994402 0.05947556800971416 0.0
0.2499999999994109 0.0545812519757542 0.0
0.2599999999993817 0.049202468885239915 0.0
0.2699999999993525 0.04338696119766399 0.0
0.2799999999993234 0.0371863477709619 0.0
0.2899999999992942 0.030655665688876194 0.0
0.299999999999265 0.023852881747900644 0.0
0.3099999999992358 0.016838377939887694 0.0
0.3199999999992066 0.0096744154972186 0.0
0.3299999999991775 0.0024245822576989587 0.0
0.3399999999991483 -0.004846771745593782 0.0
0.349999999999119 -0.0120751054597618 0.0
0.3599999999990898 -0.019196259683037797 0.0
0.3699999999990606 -0.02614702654640111 0.0
0.3799999999990315 -0.032865710551101684 0.0
0.3899999999990023 -0.039292676182271696 0.0
0.3999999999989731 -0.0453708772379763 0.0
0.4099999999989439 -0.05104636317534331 0.0
0.4199999999989147 -0.05626875797940301 0.0
0.4299999999988856 -0.0609917073041612 0.0
0.4399999999988564 -0.06517328991705555 0.0
0.4499999999988272 -0.06877638979478355 0.0
0.4599999999987979 -0.07176902556775137 0.0
0.4699999999987687 -0.07412463438897723 0.0
0.4799999999987396 -0.07582230770779932 0.0
0.4899999999987104 -0.07684697685565145 0.0
0.4999999999986921 -0.0771895467966358 0.0
0.5099999999987076 -0.07684697685570174 0.0
0.5199999999987339 -0.07582230770789508 0.0
0.5299999999987604 -0.07412463438911146 0.0
0.5399999999987867 -0.07176902556791248 0.0
0.549999999998813 -0.06877638979495994 0.0
0.5599999999988394 -0.06517328991723688 0.0
0.5699999999988659 -0.0609917073043343 0.0
0.5799999999988923 -0.056268757979554704 0.0
0.5899999999989186 -0.05104636317546276 0.0
0.5999999999989449 -0.04537087723805512 0.0
0.6099999999989714 -0.0392926761823009 0.0
0.6199999999989977 -0.032865710551070314 0.0
0.6299999999990241 -0.026147026546298156 0.0
0.6399999999990504 -0.019196259682850877 0.0
0.6499999999990768 -0.012075105459476078 0.0
0.6599999999991032 -0.0048467717451927935 0.0
0.6699999999991295 0.0024245822582320826 0.0
0.679999999999156 0.009674415497898926 0.0
0.6899999999991824 0.01683837794072329 0.0
0.6999999999992087 0.023852881748892066 0.0
0.7099999999992351 0.03065566569002061 0.0
0.7199999999992615 0.037186347772252076 0.0
0.7299999999992879 0.04338696119909467 0.0
0.7399999999993142 0.049202468886802984 0.0
0.7499999999993405 0.054581251977440404 0.0
0.759999999999367 0.05947556801151459 0.0
0.7699999999993933 0.06384197469341768 0.0
0.7799999999994197 0.06764171548832916 0.0
0.789999999999446 0.0708410636279634 0.0
0.7999999999994724 0.07341162147173896 0.0
0.8099999999994988 0.07533057256624975 0.0
0.8199999999995252 0.07658088416573204 0.0
0.8299999999995517 0.07715145841591145 0.0
0.839999999999578 0.07703723085934473 0.0
0.8499999999996044 0.07623921538790893 0.0
0.8599999999996307 0.07476449524342446 0.0
0.869999999999657 0.0726261601462959 0.0
0.8799999999996835 0.06984319011022623 0.0
0.8899999999997098 0.06644028697427105 0.0
0.8999999999997362 0.0624476551475655 0.0
0.9099999999997626 0.05790073351285131 0.0
0.9199999999997889 0.052839880868452434 0.0
0.9299999999998153 0.047310017700719506 0.0
0.9399999999998417 0.041360227466612415 0.0
0.9499999999998682 0.035043320925459795 0.0
0.9599999999998945 0.028415367386918623 0.0
0.9699999999999208 0.021535197035818503 0.0
0.9799999999999472 0.014463878751270426 0.0
0.9899999999999736 0.007264178054972731 0.0

CELLS 100 300
2 0 2
2 2 3
2 3 4
2 4 5
2 5 6
2 6 7
2 7 8
2 8 9
2 9 10
2 10 11
2 11 12
2 12 13
2 13 14
2 14 15
2 15 16
2 16 17
2 17 18
2 18 19
2 19 20
2 20 21
2 21 22
2 22 23
2 23 24
2 24 25
2 25 26
2 26 27
2 27 28
2 28 29
2 29 30
2 30 31
2 31 32
2 32 33
2 33 34
2 34 35
2 35 36
2 36 37
2 37 38
2 38 39
2 39 40
2 40 41
2 41 42
2 42 43
2 43 44
2 44 45
2 45 46
2 46 47
2 47 48
2 48 49
2 49 50
2 50 51
2 51 52
2 52 53
2 53 54
2 54 55
2 55 56
2 56 57
2 57 58
2 58 59
2 59 60
2 60 61
2 61 62
2 62 63
2 63 64
2 64 65
2 65 66
2 66 67
2 67 68
2 68 69
2 69 70
2 70 71
2 71 72
2 72 73
2 73 74
2 74 75
2 75 76
2 76 77
2 77 78
2 78 79
2 79 80
2 80 81
2 81 82
2 82 83
2 83 84
2 84 85
2 85 86
2 86 87
2 87 88
2 88 89
2 89 90
2 90 91
2 91 92
2 92 93
2 93 94
2 94 95
2 95 96
2 96 97
2 97 98
2 98 99
2 99 100
2 100 1

CELL_TYPES 100
3
3
3
3
3
3
3
3
3
3
3
3
3
3
3
3
3
3
3
3
3
3
3
3
3
3
3
3
3
3
3
3
3
3
3
3
3
3
3
3
3
3
3
3
3
3
3
3
3
3
3
3
3
3
3
3
3
3
3
3
3
3
3
3
3
3
3
3
3
3
3
3
3
3
3
3
3
3
3
3
3
3
3
3
3
3
3
3
3
3
3
3
3
3
3
3
3
3
3
3

POINT_DATA 101
SCALARS MODE3_1783.9496_Hz float 1
LOOKUP_TABLE default
0.0
0.0
0.0169497487945421
0.03374905041880897
0.05024879308230082
0.06630252390105913
0.08176774882383729
0.09650719741938585
0.11039004129851655
0.1232930553561406
0.1351017115260287
0.1457111953400388
0.15502733626875284
0.1629674435857637
0.16946104033641296
0.17445048889623765
0.17789150256660338
0.17975353866656796
0.1800200696318893
0.1786887297148544
0.17577133598282002
0.1712937834290888
0.16529581512710828
0.1578306694681411
0.14896460761354322
0.13877632535599974
0.12735625461009314
0.1148057607322265
0.10123624279454933
0.08676814479891112
0.0715298866073778
0.05565672407843485
0.03928954852640463
0.022573636160176738
0.005657358601297571
-0.01130913407305216
-0.02817524607277754
-0.044791272593754865
-0.06100972860826927
-0.07668665795257061
-0.09168291109196731
-0.10586538022194472
-0.11910818074246773
-0.13129376861860706
-0.1423139837097095
-0.152071009806463
-0.160478242854495
-0.16746105965808658
-0.17295748024094693
-0.17691871798486514
-0.17930961266318673
-0.18010894252548357
-0.17930961266330409
-0.17691871798508854
-0.1729574802412601
-0.16746105965846247
-0.16047824285490656
-0.15207100980688606
-0.1423139837101134
-0.131293768618961
-0.11910818074274647
-0.10586538022212863
-0.09168291109203545
-0.0766866579524974
-0.06100972860802904
-0.04479127259331872
-0.028175246072110853
-0.01130913407211652
0.0056573586025415274
0.022573636161764162
0.03928954852835435
0.05565672408074816
0.0715298866100481
0.08676814480192152
0.1012362427978876
0.11480576073587365
0.12735625461402764
0.13877632536020074
0.14896460761797461
0.15783066947276805
0.16529581513191463
0.1712937834340576
0.17577133598791614
0.17868872972004146
0.18002006963712675
0.1797535386718044
0.1778915025717875
0.17445048890132378
0.16946104034135714
0.1629674435905279
0.15502733627329915
0.14571119534431953
0.13510171152998643
0.12329305535972238
0.11039004130167887
0.09650719742209565
0.08176774882607286
0.06630252390281013
0.05024879308357652
0.033749050419631
0.016949748794936374

