# vtk DataFile Version 2.0
mesh vtk view
ASCII
DATASET UNSTRUCTURED_GRID
POINTS 101 double
0.0 0.0 0.0
1.0 0.0 0.0
0.009999999999981052 -0.04358506832882254 0.0
0.01999999999996226 -0.08678327250550878 0.0
0.02999999999994291 -0.1292111822116307 0.0
0.03999999999992165 -0.1704922043170092 0.0
0.04999999999989939 -0.2102599255470102 0.0
0.05999999999987805 -0.24816136479270648 0.0
0.06999999999986013 -0.28386010619618546 0.0
0.07999999999984476 -0.31703928520150443 0.0
0.08999999999982944 -0.347404401066931 0.0
0.09999999999981413 -0.3746859308743855 0.0
0.1099999999997988 -0.3986417218339359 0.0
0.1199999999997825 -0.4190591406491067 0.0
0.1299999999997603 -0.43575696086506194 0.0
0.1399999999997321 -0.4485869714474683 0.0
0.1499999999997028 -0.457435292314123 0.0
0.1599999999996737 -0.46222338514260336 0.0
0.1699999999996445 -0.4629087504820011 0.0
0.1799999999996153 -0.45948530498105417 0.0
0.1899999999995861 -0.4519834353843944 0.0
0.1999999999995569 -0.44046972881765695 0.0
0.2099999999995277 -0.4250463817554213 0.0
0.2199999999994985 -0.4058502929180771 0.0
0.2299999999994693 -0.38305184814911114 0.0
0.2399999999994402 -0.3568534080582851 0.0
0.2499999999994109 -0.32748751185452524 0.0
0.2599999999993817 -0.29521481331143956 0.0
0.2699999999993525 -0.26032176718598404 0.0
0.2799999999993234 -0.22311808662577148 0.0
0.2899999999992942 -0.18393399413325723 0.0
0.299999999999265 -0.1431172904874039 0.0
0.3099999999992358 -0.1010302676393262 0.0
0.3199999999992066 -0.05804649298331162 0.0
0.3299999999991775 -0.014547493546193755 0.0
0.3399999999991483 0.0290806304735627 0.0
0.349999999999119 0.07245063275857082 0.0
0.3599999999990898 0.1151775580982268 0.0
0.3699999999990606 0.1568821592784067 0.0
0.3799999999990315 0.19719426330661016 0.0
0.3899999999990023 0.23575605709363026 0.0
0.3999999999989731 0.27222526342785786 0.0
0.4099999999989439 0.3062781790520599 0.0
0.4199999999989147 0.3376125478764182 0.0
0.4299999999988856 0.36595024382496727 0.0
0.4399999999988564 0.39103973950233345 0.0
0.4499999999988272 0.41265833876870145 0.0
0.4599999999987979 0.4306141534065084 0.0
0.4699999999987687 0.44474780633386357 0.0
0.4799999999987396 0.4549338462467961 0.0
0.4899999999987104 0.46108186113390875 0.0
0.4999999999986921 0.4631372807798149 0.0
0.5099999999987076 0.4610818611342105 0.0
0.5199999999987339 0.45493384624737054 0.0
0.5299999999987604 0.4447478063346688 0.0
0.5399999999987867 0.43061415340747494 0.0
0.549999999998813 0.41265833876975977 0.0
0.5599999999988394 0.39103973950342136 0.0
0.5699999999988659 0.3659502438260059 0.0
0.5799999999988923 0.3376125478773283 0.0
0.5899999999989186 0.30627817905277666 0.0
0.5999999999989449 0.2722252634283308 0.0
0.6099999999989714 0.23575605709380548 0.0
0.6199999999989977 0.19719426330642192 0.0
0.6299999999990241 0.15688215927778898 0.0
0.6399999999990504 0.1151775580971053 0.0
0.6499999999990768 0.07245063275685648 0.0
0.6599999999991032 0.029080630471156766 0.0
0.6699999999991295 -0.0145474935493925 0.0
0.679999999999156 -0.05804649298739356 0.0
0.6899999999991824 -0.10103026764433976 0.0
0.6999999999992087 -0.14311729049335242 0.0
0.7099999999992351 -0.18393399414012368 0.0
0.7199999999992615 -0.22311808663351249 0.0
0.7299999999992879 -0.2603217671945681 0.0
0.7399999999993142 -0.29521481332081795 0.0
0.7499999999993405 -0.32748751186464253 0.0
0.759999999999367 -0.3568534080690876 0.0
0.7699999999993933 -0.3830518481605062 0.0
0.7799999999994197 -0.40585029292997504 0.0
0.789999999999446 -0.42504638176778053 0.0
0.7999999999994724 -0.44046972883043384 0.0
0.8099999999994988 -0.4519834353974987 0.0
0.8199999999995252 -0.4594853049943924 0.0
0.8299999999995517 -0.4629087504954688 0.0
0.839999999999578 -0.46222338515606853 0.0
0.8499999999996044 -0.4574352923274536 0.0
0.8599999999996307 -0.4485869714605469 0.0
0.869999999999657 -0.43575696087777555 0.0
0.8799999999996835 -0.41905914066135747 0.0
0.8899999999997098 -0.3986417218456264 0.0
0.8999999999997362 -0.3746859308853931 0.0
0.9099999999997626 -0.34740440107710796 0.0
0.9199999999997889 -0.3170392852107147 0.0
0.9299999999998153 -0.2838601062043171 0.0
0.9399999999998417 -0.24816136479967454 0.0
0.9499999999998682 -0.2102599255527588 0.0
0.9599999999998945 -0.1704922043215118 0.0
0.9699999999999208 -0.12921118221491107 0.0
0.9799999999999472 -0.08678327250762258 0.0
0.9899999999999736 -0.04358506832983639 0.0

CELLS 100 300
2 0 2
2 2 3
2 3 4
2 4 5
2 5 6
2 6 7
2 7 8
2 8 9
2 9 10
2 10 11
2 11 12
2 12 13
2 13 14
2 14 15
2 15 16
2 16 17
2 17 18
2 18 19
2 19 20
2 20 21
2 21 22
2 22 23
2 23 24
2 24 25
2 25 26
2 26 27
2 27 28
2 28 29
2 29 30
2 30 31
2 31 32
2 32 33
2 33 34
2 34 35
2 35 36
2 36 37
2 37 38
2 38 39
2 39 40
2 40 41
2 41 42
2 42 43
2 43 44
2 44 45
2 45 46
2 46 47
2 47 48
2 48 49
2 49 50
2 50 51
2 51 52
2 52 53
2 53 54
2 54 55
2 55 56
2 56 57
2 57 58
2 58 59
2 59 60
2 60 61
2 61 62
2 62 63
2 63 64
2 64 65
2 65 66
2 66 67
2 67 68
2 68 69
2 69 70
2 70 71
2 71 72
2 72 73
2 73 74
2 74 75
2 75 76
2 76 77
2 77 78
2 78 79
2 79 80
2 80 81
2 81 82
2 82 83
2 83 84
2 84 85
2 85 86
2 86 87
2 87 88
2 88 89
2 89 90
2 90 91
2 91 92
2 92 93
2 93 94
2 94 95
2 95 96
2 96 97
2 97 98
2 98 99
2 99 100
2 100 1

CELL_TYPES 100
3
3
3
3
3
3
3
3
3
3
3
3
3
3
3
3
3
3
3
3
3
3
3
3
3
3
3
3
3
3
3
3
3
3
3
3
3
3
3
3
3
3
3
3
3
3
3
3
3
3
3
3
3
3
3
3
3
3
3
3
3
3
3
3
3
3
3
3
3
3
3
3
3
3
3
3
3
3
3
3
3
3
3
3
3
3
3
3
3
3
3
3
3
3
3
3
3
3
3
3

POINT_DATA 101
SCALARS MODE3_1783.9496_Hz float 1
LOOKUP_TABLE default
0.0
0.0
0.0169497487945421
0.03374905041880897
0.05024879308230082
0.06630252390105913
0.08176774882383729
0.09650719741938585
0.11039004129851655
0.1232930553561406
0.1351017115260287
0.1457111953400388
0.15502733626875284
0.1629674435857637
0.16946104033641296
0.17445048889623765
0.17789150256660338
0.17975353866656796
0.1800200696318893
0.1786887297148544
0.17577133598282002
0.1712937834290888
0.16529581512710828
0.1578306694681411
0.14896460761354322
0.13877632535599974
0.12735625461009314
0.1148057607322265
0.10123624279454933
0.08676814479891112
0.0715298866073778
0.05565672407843485
0.03928954852640463
0.022573636160176738
0.005657358601297571
-0.01130913407305216
-0.02817524607277754
-0.044791272593754865
-0.06100972860826927
-0.07668665795257061
-0.09168291109196731
-0.10586538022194472
-0.11910818074246773
-0.13129376861860706
-0.1423139837097095
-0.152071009806463
-0.160478242854495
-0.16746105965808658
-0.17295748024094693
-0.17691871798486514
-0.17930961266318673
-0.18010894252548357
-0.17930961266330409
-0.17691871798508854
-0.1729574802412601
-0.16746105965846247
-0.16047824285490656
-0.15207100980688606
-0.1423139837101134
-0.131293768618961
-0.11910818074274647
-0.10586538022212863
-0.09168291109203545
-0.0766866579524974
-0.06100972860802904
-0.04479127259331872
-0.028175246072110853
-0.01130913407211652
0.0056573586025415274
0.022573636161764162
0.03928954852835435
0.05565672408074816
0.0715298866100481
0.08676814480192152
0.1012362427978876
0.11480576073587365
0.12735625461402764
0.13877632536020074
0.14896460761797461
0.15783066947276805
0.16529581513191463
0.1712937834340576
0.17577133598791614
0.17868872972004146
0.18002006963712675
0.1797535386718044
0.1778915025717875
0.17445048890132378
0.16946104034135714
0.1629674435905279
0.15502733627329915
0.14571119534431953
0.13510171152998643
0.12329305535972238
0.11039004130167887
0.09650719742209565
0.08176774882607286
0.06630252390281013
0.05024879308357652
0.033749050419631
0.016949748794936374

