# vtk DataFile Version 2.0
mesh vtk view
ASCII
DATASET UNSTRUCTURED_GRID
POINTS 101 double
0.0 0.0 0.0
1000.0 0.0 0.0
9.999999999994726 0.000219872668340536 0.0
19.99999999998992 0.00029080880886808323 0.0
29.99999999998562 0.0001647579633498344 0.0
39.99999999997797 -7.289601672830239e-05 0.0
49.99999999996744 -0.0002611719649443879 0.0
59.99999999995786 -0.00027253622188727145 0.0
69.99999999995445 -9.929090958486392e-05 0.0
79.99999999995798 0.00014121170863288336 0.0
89.99999999996166 0.00028606086646790647 0.0
99.99999999996537 0.00023713918176696593 0.0
109.999999999969 2.758504280325797e-05 0.0
119.9999999999717 -0.00020065454954445013 0.0
129.9999999999648 -0.00029297551169303084 0.0
139.9999999999431 -0.0001868418147198299 0.0
149.9999999999183 4.585409366678438e-05 0.0
159.9999999998936 0.0002474895271509895 0.0
169.9999999998689 0.0002814814280305722 0.0
179.9999999998441 0.00012480448929962274 0.0
189.9999999998194 -0.00011641204879118233 0.0
199.9999999997947 -0.0002787738275644781 0.0
209.99999999977 -0.00025230083102985193 0.0
219.9999999997452 -5.492523881843507e-05 0.0
229.9999999997205 0.0001796554067569484 0.0
239.9999999996957 0.0002925417431348334 0.0
249.999999999671 0.0002072672449190317 0.0
259.9999999996635 -1.840516641881082e-05 0.0
269.9999999996674 -0.00023161035479125504 0.0
279.999999999671 -0.00028792818509163024 0.0
289.9999999996747 -0.00014921029553301027 0.0
299.9999999996784 9.05791073628439e-05 0.0
309.9999999996821 0.00026901237243191534 0.0
319.9999999996858 0.00026522304025321084 0.0
329.9999999996894 8.177791452128394e-05 0.0
339.9999999996932 -0.00015706162986455592 0.0
349.9999999996969 -0.0002895113533542118 0.0
359.9999999997005 -0.00022585295637340654 0.0
369.9999999997042 -9.20712638199984e-06 0.0
379.9999999997079 0.00021367539252950885 0.0
389.9999999997116 0.00029181927119680516 0.0
399.9999999997153 0.0001722917006154483 0.0
409.999999999719 -6.394217936931349e-05 0.0
419.9999999997227 -0.000256863144438579 0.0
429.9999999997264 -0.00027579111099371715 0.0
439.9999999997301 -0.00010790472366316692 0.0
449.9999999997338 0.00013307376282792327 0.0
459.9999999997374 0.000283911240305846 0.0
469.9999999997411 0.00024243398099796777 0.0
479.9999999997448 3.6737696077250734e-05 0.0
489.9999999997486 -0.00019384383235690697 0.0
499.9999999997633 -0.0002931201487920198 0.0
509.9999999998065 -0.00019384383236520751 0.0
519.9999999998261 3.673769606665937e-05 0.0
529.9999999998297 0.00024243398099196484 0.0
539.9999999998333 0.00028391124030849866 0.0
549.999999999837 0.00013307376283743357 0.0
559.9999999998406 -0.00010790472365323914 0.0
569.9999999998441 -0.00027579111099009597 0.0
579.9999999998479 -0.00025686314444372014 0.0
589.9999999998514 -6.39421793797376e-05 0.0
599.999999999855 0.0001722917006068031 0.0
609.9999999998587 0.0002918192711957959 0.0
619.9999999998623 0.00021367539253682187 0.0
629.9999999998658 -9.207126371313535e-06 0.0
639.9999999998696 -0.00022585295636658956 0.0
649.9999999998732 -0.00028951135335588107 0.0
659.9999999998768 -0.00015706162987358515 0.0
669.9999999998805 8.17779145110093e-05 0.0
679.999999999884 0.000265223040248651 0.0
689.9999999998877 0.0002690123724361611 0.0
699.9999999998913 9.057910737302115e-05 0.0
709.999999999895 -0.00014921029552379604 0.0
719.9999999998985 -0.00028792818508962176 0.0
729.9999999999021 -0.0002316103547978155 0.0
739.9999999999058 -1.8405166429502183e-05 0.0
749.9999999999094 0.0002072672449116523 0.0
759.999999999913 0.00029254174313544473 0.0
769.9999999999167 0.00017965540676407934 0.0
779.9999999999203 -5.492523881026276e-05 0.0
789.9999999999238 -0.0002523008310259761 0.0
799.9999999999276 -0.00027877382756661334 0.0
809.9999999999311 -0.00011641204879687791 0.0
819.9999999999347 0.0001248044892946461 0.0
829.9999999999384 0.00028148142802923633 0.0
839.999999999942 0.00024748952715318253 0.0
849.9999999999455 4.585409367013144e-05 0.0
859.9999999999493 -0.00018684181471776668 0.0
869.9999999999529 -0.0002929755116929665 0.0
879.9999999999565 -0.0002006545495457534 0.0
889.9999999999602 2.758504280150302e-05 0.0
899.9999999999637 0.00023713918176592572 0.0
909.9999999999674 0.00028606086646828686 0.0
919.9999999999709 0.0001412117086344291 0.0
929.9999999999746 -9.929090958320764e-05 0.0
939.9999999999782 -0.0002725362218866864 0.0
949.9999999999818 -0.00026117196494495953 0.0
959.9999999999854 -7.289601672918163e-05 0.0
969.9999999999891 0.0001647579633493154 0.0
979.9999999999927 0.00029080880886802934 0.0
989.9999999999964 0.00021987266834068255 0.0

CELLS 100 300
2 0 2
2 2 3
2 3 4
2 4 5
2 5 6
2 6 7
2 7 8
2 8 9
2 9 10
2 10 11
2 11 12
2 12 13
2 13 14
2 14 15
2 15 16
2 16 17
2 17 18
2 18 19
2 19 20
2 20 21
2 21 22
2 22 23
2 23 24
2 24 25
2 25 26
2 26 27
2 27 28
2 28 29
2 29 30
2 30 31
2 31 32
2 32 33
2 33 34
2 34 35
2 35 36
2 36 37
2 37 38
2 38 39
2 39 40
2 40 41
2 41 42
2 42 43
2 43 44
2 44 45
2 45 46
2 46 47
2 47 48
2 48 49
2 49 50
2 50 51
2 51 52
2 52 53
2 53 54
2 54 55
2 55 56
2 56 57
2 57 58
2 58 59
2 59 60
2 60 61
2 61 62
2 62 63
2 63 64
2 64 65
2 65 66
2 66 67
2 67 68
2 68 69
2 69 70
2 70 71
2 71 72
2 72 73
2 73 74
2 74 75
2 75 76
2 76 77
2 77 78
2 78 79
2 79 80
2 80 81
2 81 82
2 82 83
2 83 84
2 84 85
2 85 86
2 86 87
2 87 88
2 88 89
2 89 90
2 90 91
2 91 92
2 92 93
2 93 94
2 94 95
2 95 96
2 96 97
2 97 98
2 98 99
2 99 100
2 100 1

CELL_TYPES 100
3
3
3
3
3
3
3
3
3
3
3
3
3
3
3
3
3
3
3
3
3
3
3
3
3
3
3
3
3
3
3
3
3
3
3
3
3
3
3
3
3
3
3
3
3
3
3
3
3
3
3
3
3
3
3
3
3
3
3
3
3
3
3
3
3
3
3
3
3
3
3
3
3
3
3
3
3
3
3
3
3
3
3
3
3
3
3
3
3
3
3
3
3
3
3
3
3
3
3
3

POINT_DATA 101
SCALARS MODE1_0.1446_Hz float 1
LOOKUP_TABLE default
0.0
0.0
-4.275301884399311e-06
-5.654615727990507e-06
-3.2036270651356684e-06
1.4174225474947686e-06
5.078343762807542e-06
5.299315425585834e-06
1.930656575261243e-06
-2.7457832234171763e-06
-5.5622946257648474e-06
-4.611039645468782e-06
-5.363758322855716e-07
3.9016162411420855e-06
5.696746060697821e-06
3.633035286218915e-06
-8.916073768541408e-07
-4.81229636126924e-06
-5.473249989483348e-06
-2.4267539586037755e-06
2.263567615384101e-06
5.42060220264263e-06
4.905849492247121e-06
1.0679907548029041e-06
-3.4932995758295522e-06
-5.688311672066205e-06
-4.030196428981172e-06
3.5787823592132147e-07
4.503534676496626e-06
5.598603599003921e-06
2.901311302030755e-06
-1.761260420944187e-06
-5.230796130620576e-06
-5.1571146715902105e-06
-1.590126115691632e-06
3.053976136255254e-06
5.629387426331895e-06
4.391585262816238e-06
1.7902745742777464e-07
-4.154799299184894e-06
-5.674263606604545e-06
-3.3501164008559388e-06
1.2433201544033178e-06
4.994561141861259e-06
5.362604935988945e-06
2.098147404561579e-06
-2.58754538832073e-06
-5.5204963392803386e-06
-4.713994074960484e-06
-7.143440903909864e-07
3.76918562916208e-06
5.699558448733718e-06
3.7691856293234795e-06
-7.143440901850433e-07
-4.7139940748437604e-06
-5.520496339331918e-06
-2.5875453885056525e-06
2.098147404368539e-06
5.362604935918533e-06
4.994561141961225e-06
1.243320154606009e-06
-3.350116400687838e-06
-5.67426360658492e-06
-4.154799299327092e-06
1.7902745721998538e-07
4.391585262683686e-06
5.6293874263643535e-06
3.0539761364308223e-06
-1.5901261154918475e-06
-5.157114671501547e-06
-5.230796130703132e-06
-1.7612604211420778e-06
2.90131130185159e-06
5.598603598964868e-06
4.50353467662419e-06
3.578782361292091e-07
-4.0301964288376835e-06
-5.688311672078092e-06
-3.4932995759682094e-06
1.067990754643998e-06
4.905849492171758e-06
5.420602202684148e-06
2.2635676154948483e-06
-2.4267539585070075e-06
-5.473249989457373e-06
-4.812296361311882e-06
-8.916073769192223e-07
3.6330352861787965e-06
5.69674606069657e-06
3.901616241167427e-06
-5.363758322514476e-07
-4.611039645448556e-06
-5.5622946257722446e-06
-2.7457832234472324e-06
1.9306565752290374e-06
5.2993154255744575e-06
5.078343762818658e-06
1.4174225475118649e-06
-3.2036270651255772e-06
-5.654615727989459e-06
-4.27530188440216e-06

