# vtk DataFile Version 2.0
mesh vtk view
ASCII
DATASET UNSTRUCTURED_GRID
POINTS 101 double
0.0 0.0 0.0
1.0 0.0 0.0
0.009999999999981052 0.0508492463836263 0.0
0.01999999999996226 0.10124715125642691 0.0
0.02999999999994291 0.15074637924690246 0.0
0.03999999999992165 0.1989075717031774 0.0
0.04999999999989939 0.24530324647151186 0.0
0.05999999999987805 0.28952159225815755 0.0
0.06999999999986013 0.3311701238955497 0.0
0.07999999999984476 0.3698791660684218 0.0
0.08999999999982944 0.40530513457808615 0.0
0.09999999999981413 0.43713358602011637 0.0
0.1099999999997988 0.4650820088062585 0.0
0.1199999999997825 0.4889023307572911 0.0
0.1299999999997603 0.5083831210092389 0.0
0.1399999999997321 0.5233514666887129 0.0
0.1499999999997028 0.5336745076998102 0.0
0.1599999999996737 0.5392606159997039 0.0
0.1699999999996445 0.5400602088956679 0.0
0.1799999999996153 0.5360661891445632 0.0
0.1899999999995861 0.5273140079484601 0.0
0.1999999999995569 0.5138813502872663 0.0
0.2099999999995277 0.49588744538132484 0.0
0.2199999999994985 0.4734920084044233 0.0
0.2299999999994693 0.4468938228406296 0.0
0.2399999999994402 0.41632897606799923 0.0
0.2499999999994109 0.38206876383027943 0.0
0.2599999999993817 0.3444172821966795 0.0
0.2699999999993525 0.303708728383648 0.0
0.2799999999993234 0.26030443439673334 0.0
0.2899999999992942 0.2145896598221334 0.0
0.299999999999265 0.16697017223530453 0.0
0.3099999999992358 0.1178686455792139 0.0
0.3199999999992066 0.06772090848053021 0.0
0.3299999999991775 0.016972075803892712 0.0
0.3399999999991483 -0.03392740221915648 0.0
0.349999999999119 -0.08452573821833262 0.0
0.3599999999990898 -0.1343738177812646 0.0
0.3699999999990606 -0.18302918582480782 0.0
0.3799999999990315 -0.23005997385771182 0.0
0.3899999999990023 -0.27504873327590196 0.0
0.3999999999989731 -0.3175961406658342 0.0
0.4099999999989439 -0.3573245422274032 0.0
0.4199999999989147 -0.39388130585582115 0.0
0.4299999999988856 -0.42694195112912847 0.0
0.4399999999988564 -0.45621302941938896 0.0
0.4499999999988272 -0.481434728563485 0.0
0.4599999999987979 -0.5023831789742598 0.0
0.4699999999987687 -0.5188724407228408 0.0
0.4799999999987396 -0.5307561539545954 0.0
0.4899999999987104 -0.5379288379895601 0.0
0.4999999999986921 -0.5403268275764507 0.0
0.5099999999987076 -0.5379288379899123 0.0
0.5199999999987339 -0.5307561539552657 0.0
0.5299999999987604 -0.5188724407237802 0.0
0.5399999999987867 -0.5023831789753874 0.0
0.549999999998813 -0.4814347285647197 0.0
0.5599999999988394 -0.4562130294206582 0.0
0.5699999999988659 -0.42694195113034017 0.0
0.5799999999988923 -0.39388130585688297 0.0
0.5899999999989186 -0.3573245422282394 0.0
0.5999999999989449 -0.31759614066638586 0.0
0.6099999999989714 -0.27504873327610635 0.0
0.6199999999989977 -0.23005997385749222 0.0
0.6299999999990241 -0.18302918582408712 0.0
0.6399999999990504 -0.13437381777995616 0.0
0.6499999999990768 -0.08452573821633255 0.0
0.6599999999991032 -0.03392740221634956 0.0
0.6699999999991295 0.01697207580762458 0.0
0.679999999999156 0.06772090848529248 0.0
0.6899999999991824 0.11786864558506305 0.0
0.6999999999992087 0.16697017224224447 0.0
0.7099999999992351 0.21458965983014427 0.0
0.7199999999992615 0.26030443440576456 0.0
0.7299999999992879 0.3037087283936628 0.0
0.7399999999993142 0.3444172822076209 0.0
0.7499999999993405 0.3820687638420829 0.0
0.759999999999367 0.4163289760806022 0.0
0.7699999999993933 0.44689382285392387 0.0
0.7799999999994197 0.4734920084183042 0.0
0.789999999999446 0.4958874453957439 0.0
0.7999999999994724 0.5138813503021729 0.0
0.8099999999994988 0.5273140079637484 0.0
0.8199999999995252 0.5360661891601244 0.0
0.8299999999995517 0.5400602089113802 0.0
0.839999999999578 0.5392606160154132 0.0
0.8499999999996044 0.5336745077153625 0.0
0.8599999999996307 0.5233514667039714 0.0
0.869999999999657 0.5083831210240715 0.0
0.8799999999996835 0.4889023307715837 0.0
0.8899999999997098 0.4650820088198975 0.0
0.8999999999997362 0.4371335860329586 0.0
0.9099999999997626 0.4053051345899593 0.0
0.9199999999997889 0.36987916607916715 0.0
0.9299999999998153 0.33117012390503664 0.0
0.9399999999998417 0.28952159226628693 0.0
0.9499999999998682 0.2453032464782186 0.0
0.9599999999998945 0.1989075717084304 0.0
0.9699999999999208 0.15074637925072956 0.0
0.9799999999999472 0.101247151258893 0.0
0.9899999999999736 0.05084924638480912 0.0

CELLS 100 300
2 0 2
2 2 3
2 3 4
2 4 5
2 5 6
2 6 7
2 7 8
2 8 9
2 9 10
2 10 11
2 11 12
2 12 13
2 13 14
2 14 15
2 15 16
2 16 17
2 17 18
2 18 19
2 19 20
2 20 21
2 21 22
2 22 23
2 23 24
2 24 25
2 25 26
2 26 27
2 27 28
2 28 29
2 29 30
2 30 31
2 31 32
2 32 33
2 33 34
2 34 35
2 35 36
2 36 37
2 37 38
2 38 39
2 39 40
2 40 41
2 41 42
2 42 43
2 43 44
2 44 45
2 45 46
2 46 47
2 47 48
2 48 49
2 49 50
2 50 51
2 51 52
2 52 53
2 53 54
2 54 55
2 55 56
2 56 57
2 57 58
2 58 59
2 59 60
2 60 61
2 61 62
2 62 63
2 63 64
2 64 65
2 65 66
2 66 67
2 67 68
2 68 69
2 69 70
2 70 71
2 71 72
2 72 73
2 73 74
2 74 75
2 75 76
2 76 77
2 77 78
2 78 79
2 79 80
2 80 81
2 81 82
2 82 83
2 83 84
2 84 85
2 85 86
2 86 87
2 87 88
2 88 89
2 89 90
2 90 91
2 91 92
2 92 93
2 93 94
2 94 95
2 95 96
2 96 97
2 97 98
2 98 99
2 99 100
2 100 1

CELL_TYPES 100
3
3
3
3
3
3
3
3
3
3
3
3
3
3
3
3
3
3
3
3
3
3
3
3
3
3
3
3
3
3
3
3
3
3
3
3
3
3
3
3
3
3
3
3
3
3
3
3
3
3
3
3
3
3
3
3
3
3
3
3
3
3
3
3
3
3
3
3
3
3
3
3
3
3
3
3
3
3
3
3
3
3
3
3
3
3
3
3
3
3
3
3
3
3
3
3
3
3
3
3

POINT_DATA 101
SCALARS MODE3_1783.9496_Hz float 1
LOOKUP_TABLE default
0.0
0.0
0.0169497487945421
0.03374905041880897
0.05024879308230082
0.06630252390105913
0.08176774882383729
0.09650719741938585
0.11039004129851655
0.1232930553561406
0.1351017115260287
0.1457111953400388
0.15502733626875284
0.1629674435857637
0.16946104033641296
0.17445048889623765
0.17789150256660338
0.17975353866656796
0.1800200696318893
0.1786887297148544
0.17577133598282002
0.1712937834290888
0.16529581512710828
0.1578306694681411
0.14896460761354322
0.13877632535599974
0.12735625461009314
0.1148057607322265
0.10123624279454933
0.08676814479891112
0.0715298866073778
0.05565672407843485
0.03928954852640463
0.022573636160176738
0.005657358601297571
-0.01130913407305216
-0.02817524607277754
-0.044791272593754865
-0.06100972860826927
-0.07668665795257061
-0.09168291109196731
-0.10586538022194472
-0.11910818074246773
-0.13129376861860706
-0.1423139837097095
-0.152071009806463
-0.160478242854495
-0.16746105965808658
-0.17295748024094693
-0.17691871798486514
-0.17930961266318673
-0.18010894252548357
-0.17930961266330409
-0.17691871798508854
-0.1729574802412601
-0.16746105965846247
-0.16047824285490656
-0.15207100980688606
-0.1423139837101134
-0.131293768618961
-0.11910818074274647
-0.10586538022212863
-0.09168291109203545
-0.0766866579524974
-0.06100972860802904
-0.04479127259331872
-0.028175246072110853
-0.01130913407211652
0.0056573586025415274
0.022573636161764162
0.03928954852835435
0.05565672408074816
0.0715298866100481
0.08676814480192152
0.1012362427978876
0.11480576073587365
0.12735625461402764
0.13877632536020074
0.14896460761797461
0.15783066947276805
0.16529581513191463
0.1712937834340576
0.17577133598791614
0.17868872972004146
0.18002006963712675
0.1797535386718044
0.1778915025717875
0.17445048890132378
0.16946104034135714
0.1629674435905279
0.15502733627329915
0.14571119534431953
0.13510171152998643
0.12329305535972238
0.11039004130167887
0.09650719742209565
0.08176774882607286
0.06630252390281013
0.05024879308357652
0.033749050419631
0.016949748794936374

