# vtk DataFile Version 2.0
mesh vtk view
ASCII
DATASET UNSTRUCTURED_GRID
POINTS 101 double
0.0 0.0 0.0
1.0 0.0 0.0
0.009999999999981052 -0.029056712219215023 0.0
0.01999999999996226 -0.05785551500367251 0.0
0.02999999999994291 -0.0861407881410871 0.0
0.03999999999992165 -0.11366146954467278 0.0
0.04999999999989939 -0.14017328369800675 0.0
0.05999999999987805 -0.1654409098618043 0.0
0.06999999999986013 -0.18924007079745692 0.0
0.07999999999984476 -0.21135952346766956 0.0
0.08999999999982944 -0.2316029340446206 0.0
0.09999999999981413 -0.2497906205829236 0.0
0.1099999999997988 -0.26576114788929056 0.0
0.1199999999997825 -0.27937276043273773 0.0
0.1299999999997603 -0.2905046405767079 0.0
0.1399999999997321 -0.29905798096497876 0.0
0.1499999999997028 -0.3049568615427486 0.0
0.1599999999996737 -0.30814892342840217 0.0
0.1699999999996445 -0.3086058336546673 0.0
0.1799999999996153 -0.30632353665403605 0.0
0.1899999999995861 -0.30132229025626284 0.0
0.1999999999995569 -0.2936464858784379 0.0
0.2099999999995277 -0.28336425450361413 0.0
0.2199999999994985 -0.27056686194538465 0.0
0.2299999999994693 -0.255367898766074 0.0
0.2399999999994402 -0.23790227203885664 0.0
0.2499999999994109 -0.2183250079030168 0.0
0.2599999999993817 -0.19680987554095966 0.0
0.2699999999993525 -0.17354784479065596 0.0
0.2799999999993234 -0.1487453910838476 0.0
0.2899999999992942 -0.12262266275550478 0.0
0.299999999999265 -0.09541152699160257 0.0
0.3099999999992358 -0.06735351175955077 0.0
0.3199999999992066 -0.0386976619888744 0.0
0.3299999999991775 -0.009698329030795835 0.0
0.3399999999991483 0.019387086982375127 0.0
0.349999999999119 0.0483004218390472 0.0
0.3599999999990898 0.07678503873215119 0.0
0.3699999999990606 0.10458810618560443 0.0
0.3799999999990315 0.13146284220440674 0.0
0.3899999999990023 0.15717070472908679 0.0
0.3999999999989731 0.1814835089519052 0.0
0.4099999999989439 0.20418545270137323 0.0
0.4199999999989147 0.22507503191761205 0.0
0.4299999999988856 0.2439668292166448 0.0
0.4399999999988564 0.2606931596682222 0.0
0.4499999999988272 0.2751055591791342 0.0
0.4599999999987979 0.2870761022710055 0.0
0.4699999999987687 0.29649853755590894 0.0
0.4799999999987396 0.3032892308311973 0.0
0.4899999999987104 0.3073879074226058 0.0
0.4999999999986921 0.3087581871865432 0.0
0.5099999999987076 0.30738790742280697 0.0
0.5199999999987339 0.3032892308315803 0.0
0.5299999999987604 0.29649853755644584 0.0
0.5399999999987867 0.2870761022716499 0.0
0.549999999998813 0.27510555917983975 0.0
0.5599999999988394 0.2606931596689475 0.0
0.5699999999988659 0.2439668292173372 0.0
0.5799999999988923 0.22507503191821882 0.0
0.5899999999989186 0.20418545270185104 0.0
0.5999999999989449 0.18148350895222048 0.0
0.6099999999989714 0.1571707047292036 0.0
0.6199999999989977 0.13146284220428125 0.0
0.6299999999990241 0.10458810618519263 0.0
0.6399999999990504 0.07678503873140351 0.0
0.6499999999990768 0.04830042183790431 0.0
0.6599999999991032 0.019387086980771174 0.0
0.6699999999991295 -0.00969832903292833 0.0
0.679999999999156 -0.0386976619915957 0.0
0.6899999999991824 -0.06735351176289316 0.0
0.6999999999992087 -0.09541152699556826 0.0
0.7099999999992351 -0.12262266276008243 0.0
0.7199999999992615 -0.1487453910890083 0.0
0.7299999999992879 -0.1735478447963787 0.0
0.7399999999993142 -0.19680987554721194 0.0
0.7499999999993405 -0.21832500790976161 0.0
0.759999999999367 -0.23790227204605835 0.0
0.7699999999993933 -0.2553678987736707 0.0
0.7799999999994197 -0.27056686195331664 0.0
0.789999999999446 -0.2833642545118536 0.0
0.7999999999994724 -0.29364648588695585 0.0
0.8099999999994988 -0.301322290264999 0.0
0.8199999999995252 -0.30632353666292816 0.0
0.8299999999995517 -0.3086058336636458 0.0
0.839999999999578 -0.30814892343737893 0.0
0.8499999999996044 -0.3049568615516357 0.0
0.8599999999996307 -0.29905798097369785 0.0
0.869999999999657 -0.2905046405851836 0.0
0.8799999999996835 -0.2793727604409049 0.0
0.8899999999997098 -0.2657611478970842 0.0
0.8999999999997362 -0.249790620590262 0.0
0.9099999999997626 -0.23160293405140525 0.0
0.9199999999997889 -0.21135952347380974 0.0
0.9299999999998153 -0.18924007080287802 0.0
0.9399999999998417 -0.16544090986644966 0.0
0.9499999999998682 -0.14017328370183918 0.0
0.9599999999998945 -0.11366146954767449 0.0
0.9699999999999208 -0.08614078814327401 0.0
0.9799999999999472 -0.0578555150050817 0.0
0.9899999999999736 -0.029056712219890923 0.0

CELLS 100 300
2 0 2
2 2 3
2 3 4
2 4 5
2 5 6
2 6 7
2 7 8
2 8 9
2 9 10
2 10 11
2 11 12
2 12 13
2 13 14
2 14 15
2 15 16
2 16 17
2 17 18
2 18 19
2 19 20
2 20 21
2 21 22
2 22 23
2 23 24
2 24 25
2 25 26
2 26 27
2 27 28
2 28 29
2 29 30
2 30 31
2 31 32
2 32 33
2 33 34
2 34 35
2 35 36
2 36 37
2 37 38
2 38 39
2 39 40
2 40 41
2 41 42
2 42 43
2 43 44
2 44 45
2 45 46
2 46 47
2 47 48
2 48 49
2 49 50
2 50 51
2 51 52
2 52 53
2 53 54
2 54 55
2 55 56
2 56 57
2 57 58
2 58 59
2 59 60
2 60 61
2 61 62
2 62 63
2 63 64
2 64 65
2 65 66
2 66 67
2 67 68
2 68 69
2 69 70
2 70 71
2 71 72
2 72 73
2 73 74
2 74 75
2 75 76
2 76 77
2 77 78
2 78 79
2 79 80
2 80 81
2 81 82
2 82 83
2 83 84
2 84 85
2 85 86
2 86 87
2 87 88
2 88 89
2 89 90
2 90 91
2 91 92
2 92 93
2 93 94
2 94 95
2 95 96
2 96 97
2 97 98
2 98 99
2 99 100
2 100 1

CELL_TYPES 100
3
3
3
3
3
3
3
3
3
3
3
3
3
3
3
3
3
3
3
3
3
3
3
3
3
3
3
3
3
3
3
3
3
3
3
3
3
3
3
3
3
3
3
3
3
3
3
3
3
3
3
3
3
3
3
3
3
3
3
3
3
3
3
3
3
3
3
3
3
3
3
3
3
3
3
3
3
3
3
3
3
3
3
3
3
3
3
3
3
3
3
3
3
3
3
3
3
3
3
3

POINT_DATA 101
SCALARS MODE3_1783.9496_Hz float 1
LOOKUP_TABLE default
0.0
0.0
0.0169497487945421
0.03374905041880897
0.05024879308230082
0.06630252390105913
0.08176774882383729
0.09650719741938585
0.11039004129851655
0.1232930553561406
0.1351017115260287
0.1457111953400388
0.15502733626875284
0.1629674435857637
0.16946104033641296
0.17445048889623765
0.17789150256660338
0.17975353866656796
0.1800200696318893
0.1786887297148544
0.17577133598282002
0.1712937834290888
0.16529581512710828
0.1578306694681411
0.14896460761354322
0.13877632535599974
0.12735625461009314
0.1148057607322265
0.10123624279454933
0.08676814479891112
0.0715298866073778
0.05565672407843485
0.03928954852640463
0.022573636160176738
0.005657358601297571
-0.01130913407305216
-0.02817524607277754
-0.044791272593754865
-0.06100972860826927
-0.07668665795257061
-0.09168291109196731
-0.10586538022194472
-0.11910818074246773
-0.13129376861860706
-0.1423139837097095
-0.152071009806463
-0.160478242854495
-0.16746105965808658
-0.17295748024094693
-0.17691871798486514
-0.17930961266318673
-0.18010894252548357
-0.17930961266330409
-0.17691871798508854
-0.1729574802412601
-0.16746105965846247
-0.16047824285490656
-0.15207100980688606
-0.1423139837101134
-0.131293768618961
-0.11910818074274647
-0.10586538022212863
-0.09168291109203545
-0.0766866579524974
-0.06100972860802904
-0.04479127259331872
-0.028175246072110853
-0.01130913407211652
0.0056573586025415274
0.022573636161764162
0.03928954852835435
0.05565672408074816
0.0715298866100481
0.08676814480192152
0.1012362427978876
0.11480576073587365
0.12735625461402764
0.13877632536020074
0.14896460761797461
0.15783066947276805
0.16529581513191463
0.1712937834340576
0.17577133598791614
0.17868872972004146
0.18002006963712675
0.1797535386718044
0.1778915025717875
0.17445048890132378
0.16946104034135714
0.1629674435905279
0.15502733627329915
0.14571119534431953
0.13510171152998643
0.12329305535972238
0.11039004130167887
0.09650719742209565
0.08176774882607286
0.06630252390281013
0.05024879308357652
0.033749050419631
0.016949748794936374

