# vtk DataFile Version 2.0
mesh vtk view
ASCII
DATASET UNSTRUCTURED_GRID
POINTS 101 double
0.0 0.0 0.0
1000.0 0.0 0.0
9.999999999994726 0.00025651811306395865 0.0
19.99999999998992 0.0003392769436794304 0.0
29.99999999998562 0.0001922176239081401 0.0
39.99999999997797 -8.504535284968611e-05 0.0
49.99999999996744 -0.0003047006257684525 0.0
59.99999999995786 -0.00031795892553515006 0.0
69.99999999995445 -0.00011583939451567458 0.0
79.99999999995798 0.00016474699340503058 0.0
89.99999999996166 0.00033373767754589083 0.0
99.99999999996537 0.00027666237872812693 0.0
109.999999999969 3.2182549937134295e-05 0.0
119.9999999999717 -0.00023409697446852512 0.0
129.9999999999648 -0.00034180476364186927 0.0
139.9999999999431 -0.00021798211717313488 0.0
149.9999999999183 5.3496442611248445e-05 0.0
159.9999999998936 0.00028873778167615437 0.0
169.9999999998689 0.0003283949993690009 0.0
179.9999999998441 0.00014560523751622653 0.0
189.9999999998194 -0.00013581405692304605 0.0
199.9999999997947 -0.00032523613215855777 0.0
209.99999999977 -0.0002943509695348273 0.0
219.9999999997452 -6.407944528817425e-05 0.0
229.9999999997205 0.00020959797454977313 0.0
239.9999999996957 0.0003412987003239723 0.0
249.999999999671 0.0002418117857388703 0.0
259.9999999996635 -2.1472694155279288e-05 0.0
269.9999999996674 -0.00027021208058979757 0.0
279.999999999671 -0.00033591621594023527 0.0
289.9999999996747 -0.0001740786781218453 0.0
299.9999999996784 0.00010567562525665122 0.0
309.9999999996821 0.00031384776783723457 0.0
319.9999999996858 0.00030942688029541264 0.0
329.9999999996894 9.540756694149793e-05 0.0
339.9999999996932 -0.00018323856817531524 0.0
349.9999999996969 -0.0003377632455799137 0.0
359.9999999997005 -0.00026349511576897425 0.0
369.9999999997042 -1.0741647445666478e-05 0.0
379.9999999997079 0.00024928795795109367 0.0
389.9999999997116 0.00034045581639627267 0.0
399.9999999997153 0.00020100698405135632 0.0
409.999999999719 -7.459920926419906e-05 0.0
419.9999999997227 -0.0002996736685116755 0.0
429.9999999997264 -0.00032175629615933667 0.0
439.9999999997301 -0.00012588884427369474 0.0
449.9999999997338 0.0001552527232992438 0.0
459.9999999997374 0.00033122978035682034 0.0
469.9999999997411 0.00028283964449762905 0.0
479.9999999997448 4.2860645423459184e-05 0.0
489.9999999997486 -0.0002261511377497248 0.0
499.9999999997633 -0.0003419735069240231 0.0
509.9999999998065 -0.00022615113775940876 0.0
519.9999999998261 4.28606454111026e-05 0.0
529.9999999998297 0.00028283964449062564 0.0
539.9999999998333 0.0003312297803599151 0.0
549.999999999837 0.00015525272331033915 0.0
559.9999999998406 -0.00012588884426211234 0.0
569.9999999998441 -0.00032175629615511196 0.0
579.9999999998479 -0.0002996736685176735 0.0
589.9999999998514 -7.459920927636053e-05 0.0
599.999999999855 0.00020100698404127028 0.0
609.9999999998587 0.00034045581639509517 0.0
619.9999999998623 0.0002492879579596255 0.0
629.9999999998658 -1.0741647433199123e-05 0.0
639.9999999998696 -0.00026349511576102114 0.0
649.9999999998732 -0.0003377632455818612 0.0
659.9999999998768 -0.00018323856818584935 0.0
669.9999999998805 9.540756692951085e-05 0.0
679.999999999884 0.00030942688029009284 0.0
689.9999999998877 0.00031384776784218796 0.0
699.9999999998913 0.00010567562526852467 0.0
709.999999999895 -0.0001740786781110954 0.0
719.9999999998985 -0.00033591621593789204 0.0
729.9999999999021 -0.0002702120805974514 0.0
739.9999999999058 -2.1472694167752546e-05 0.0
749.9999999999094 0.000241811785730261 0.0
759.999999999913 0.0003412987003246855 0.0
769.9999999999167 0.00020959797455809257 0.0
779.9999999999203 -6.407944527863988e-05 0.0
789.9999999999238 -0.00029435096953030546 0.0
799.9999999999276 -0.0003252361321610489 0.0
809.9999999999311 -0.00013581405692969089 0.0
819.9999999999347 0.00014560523751042044 0.0
829.9999999999384 0.00032839499936744234 0.0
839.999999999942 0.0002887377816787129 0.0
849.9999999999455 5.349644261515334e-05 0.0
859.9999999999493 -0.0002179821171707278 0.0
869.9999999999529 -0.0003418047636417942 0.0
879.9999999999565 -0.00023409697447004563 0.0
889.9999999999602 3.218254993508686e-05 0.0
899.9999999999637 0.00027666237872691333 0.0
909.9999999999674 0.00033373767754633465 0.0
919.9999999999709 0.00016474699340683394 0.0
929.9999999999746 -0.00011583939451374224 0.0
939.9999999999782 -0.00031795892553446745 0.0
949.9999999999818 -0.00030470062576911944 0.0
959.9999999999854 -8.504535285071189e-05 0.0
969.9999999999891 0.00019221762390753464 0.0
979.9999999999927 0.0003392769436793675 0.0
989.9999999999964 0.00025651811306412963 0.0

CELLS 100 300
2 0 2
2 2 3
2 3 4
2 4 5
2 5 6
2 6 7
2 7 8
2 8 9
2 9 10
2 10 11
2 11 12
2 12 13
2 13 14
2 14 15
2 15 16
2 16 17
2 17 18
2 18 19
2 19 20
2 20 21
2 21 22
2 22 23
2 23 24
2 24 25
2 25 26
2 26 27
2 27 28
2 28 29
2 29 30
2 30 31
2 31 32
2 32 33
2 33 34
2 34 35
2 35 36
2 36 37
2 37 38
2 38 39
2 39 40
2 40 41
2 41 42
2 42 43
2 43 44
2 44 45
2 45 46
2 46 47
2 47 48
2 48 49
2 49 50
2 50 51
2 51 52
2 52 53
2 53 54
2 54 55
2 55 56
2 56 57
2 57 58
2 58 59
2 59 60
2 60 61
2 61 62
2 62 63
2 63 64
2 64 65
2 65 66
2 66 67
2 67 68
2 68 69
2 69 70
2 70 71
2 71 72
2 72 73
2 73 74
2 74 75
2 75 76
2 76 77
2 77 78
2 78 79
2 79 80
2 80 81
2 81 82
2 82 83
2 83 84
2 84 85
2 85 86
2 86 87
2 87 88
2 88 89
2 89 90
2 90 91
2 91 92
2 92 93
2 93 94
2 94 95
2 95 96
2 96 97
2 97 98
2 98 99
2 99 100
2 100 1

CELL_TYPES 100
3
3
3
3
3
3
3
3
3
3
3
3
3
3
3
3
3
3
3
3
3
3
3
3
3
3
3
3
3
3
3
3
3
3
3
3
3
3
3
3
3
3
3
3
3
3
3
3
3
3
3
3
3
3
3
3
3
3
3
3
3
3
3
3
3
3
3
3
3
3
3
3
3
3
3
3
3
3
3
3
3
3
3
3
3
3
3
3
3
3
3
3
3
3
3
3
3
3
3
3

POINT_DATA 101
SCALARS MODE1_0.1446_Hz float 1
LOOKUP_TABLE default
0.0
0.0
-4.275301884399311e-06
-5.654615727990507e-06
-3.2036270651356684e-06
1.4174225474947686e-06
5.078343762807542e-06
5.299315425585834e-06
1.930656575261243e-06
-2.7457832234171763e-06
-5.5622946257648474e-06
-4.611039645468782e-06
-5.363758322855716e-07
3.9016162411420855e-06
5.696746060697821e-06
3.633035286218915e-06
-8.916073768541408e-07
-4.81229636126924e-06
-5.473249989483348e-06
-2.4267539586037755e-06
2.263567615384101e-06
5.42060220264263e-06
4.905849492247121e-06
1.0679907548029041e-06
-3.4932995758295522e-06
-5.688311672066205e-06
-4.030196428981172e-06
3.5787823592132147e-07
4.503534676496626e-06
5.598603599003921e-06
2.901311302030755e-06
-1.761260420944187e-06
-5.230796130620576e-06
-5.1571146715902105e-06
-1.590126115691632e-06
3.053976136255254e-06
5.629387426331895e-06
4.391585262816238e-06
1.7902745742777464e-07
-4.154799299184894e-06
-5.674263606604545e-06
-3.3501164008559388e-06
1.2433201544033178e-06
4.994561141861259e-06
5.362604935988945e-06
2.098147404561579e-06
-2.58754538832073e-06
-5.5204963392803386e-06
-4.713994074960484e-06
-7.143440903909864e-07
3.76918562916208e-06
5.699558448733718e-06
3.7691856293234795e-06
-7.143440901850433e-07
-4.7139940748437604e-06
-5.520496339331918e-06
-2.5875453885056525e-06
2.098147404368539e-06
5.362604935918533e-06
4.994561141961225e-06
1.243320154606009e-06
-3.350116400687838e-06
-5.67426360658492e-06
-4.154799299327092e-06
1.7902745721998538e-07
4.391585262683686e-06
5.6293874263643535e-06
3.0539761364308223e-06
-1.5901261154918475e-06
-5.157114671501547e-06
-5.230796130703132e-06
-1.7612604211420778e-06
2.90131130185159e-06
5.598603598964868e-06
4.50353467662419e-06
3.578782361292091e-07
-4.0301964288376835e-06
-5.688311672078092e-06
-3.4932995759682094e-06
1.067990754643998e-06
4.905849492171758e-06
5.420602202684148e-06
2.2635676154948483e-06
-2.4267539585070075e-06
-5.473249989457373e-06
-4.812296361311882e-06
-8.916073769192223e-07
3.6330352861787965e-06
5.69674606069657e-06
3.901616241167427e-06
-5.363758322514476e-07
-4.611039645448556e-06
-5.5622946257722446e-06
-2.7457832234472324e-06
1.9306565752290374e-06
5.2993154255744575e-06
5.078343762818658e-06
1.4174225475118649e-06
-3.2036270651255772e-06
-5.654615727989459e-06
-4.27530188440216e-06

