# vtk DataFile Version 2.0
mesh vtk view
ASCII
DATASET UNSTRUCTURED_GRID
POINTS 101 double
0.0 0.0 0.0
1000.0 0.0 0.0
9.999999999994726 0.00014658177889369063 0.0
19.99999999998992 0.00019387253924538876 0.0
29.99999999998562 0.00010983864223322289 0.0
39.99999999997797 -4.8597344485534915e-05 0.0
49.99999999996744 -0.00017411464329625855 0.0
59.99999999995786 -0.00018169081459151425 0.0
69.99999999995445 -6.61939397232426e-05 0.0
79.99999999995798 9.414113908858888e-05 0.0
89.99999999996166 0.00019070724431193757 0.0
99.99999999996537 0.0001580927878446439 0.0
109.999999999969 1.8390028535505307e-05 0.0
119.9999999999717 -0.00013376969969630003 0.0
129.9999999999648 -0.00019531700779535383 0.0
139.9999999999431 -0.00012456120981321991 0.0
149.9999999999183 3.0569395777856246e-05 0.0
159.9999999998936 0.0001649930181006596 0.0
169.9999999998689 0.00018765428535371474 0.0
179.9999999998441 8.320299286641514e-05 0.0
189.9999999998194 -7.760803252745487e-05 0.0
199.9999999997947 -0.00018584921837631869 0.0
209.99999999977 -0.00016820055401990127 0.0
219.9999999997452 -3.6616825878956704e-05 0.0
229.9999999997205 0.0001197702711712989 0.0
239.9999999996957 0.00019502782875655556 0.0
249.999999999671 0.00013817816327935442 0.0
259.9999999996635 -1.2270110945873876e-05 0.0
269.9999999996674 -0.00015440690319416998 0.0
279.999999999671 -0.0001919521233944201 0.0
289.9999999996747 -9.947353035534016e-05 0.0
299.9999999996784 6.038607157522925e-05 0.0
309.9999999996821 0.00017934158162127685 0.0
319.9999999996858 0.00017681536016880717 0.0
329.9999999996894 5.451860968085594e-05 0.0
339.9999999996932 -0.00010470775324303725 0.0
349.9999999996969 -0.0001930075689028078 0.0
359.9999999997005 -0.00015056863758227098 0.0
369.9999999997042 -6.138084254666558e-06 0.0
379.9999999997079 0.0001424502616863392 0.0
389.9999999997116 0.00019454618079787006 0.0
399.9999999997153 0.00011486113374363216 0.0
409.999999999719 -4.262811957954231e-05 0.0
419.9999999997227 -0.00017124209629238598 0.0
429.9999999997264 -0.00018386074066247806 0.0
439.9999999997301 -7.193648244211125e-05 0.0
449.9999999997338 8.871584188528214e-05 0.0
459.9999999997374 0.00018927416020389729 0.0
469.9999999997411 0.00016162265399864513 0.0
479.9999999997448 2.4491797384833814e-05 0.0
489.9999999997486 -0.00012922922157127128 0.0
499.9999999997633 -0.00019541343252801316 0.0
509.9999999998065 -0.000129229221576805 0.0
519.9999999998261 2.4491797377772907e-05 0.0
529.9999999998297 0.00016162265399464318 0.0
539.9999999998333 0.0001892741602056657 0.0
549.999999999837 8.871584189162235e-05 0.0
559.9999999998406 -7.193648243549274e-05 0.0
569.9999999998441 -0.00018386074066006392 0.0
579.9999999998479 -0.0001712420962958134 0.0
589.9999999998514 -4.262811958649172e-05 0.0
599.999999999855 0.0001148611337378687 0.0
609.9999999998587 0.0001945461807971972 0.0
619.9999999998623 0.00014245026169121454 0.0
629.9999999998658 -6.138084247542354e-06 0.0
639.9999999998696 -0.00015056863757772633 0.0
649.9999999998732 -0.00019300756890392064 0.0
659.9999999998768 -0.00010470775324905674 0.0
669.9999999998805 5.451860967400619e-05 0.0
679.999999999884 0.0001768153601657673 0.0
689.9999999998877 0.00017934158162410735 0.0
699.9999999998913 6.038607158201408e-05 0.0
709.999999999895 -9.947353034919734e-05 0.0
719.9999999998985 -0.00019195212339308113 0.0
729.9999999999021 -0.00015440690319854362 0.0
739.9999999999058 -1.2270110953001452e-05 0.0
749.9999999999094 0.00013817816327443483 0.0
759.999999999913 0.00019502782875696308 0.0
769.9999999999167 0.00011977027117605286 0.0
779.9999999999203 -3.661682587350849e-05 0.0
789.9999999999238 -0.00016820055401731737 0.0
799.9999999999276 -0.0001858492183777422 0.0
809.9999999999311 -7.760803253125192e-05 0.0
819.9999999999347 8.320299286309738e-05 0.0
829.9999999999384 0.00018765428535282418 0.0
839.999999999942 0.00016499301810212163 0.0
849.9999999999455 3.0569395780087616e-05 0.0
859.9999999999493 -0.00012456120981184441 0.0
869.9999999999529 -0.00019531700779531092 0.0
879.9999999999565 -0.00013376969969716888 0.0
889.9999999999602 1.8390028534335344e-05 0.0
899.9999999999637 0.00015809278784395046 0.0
909.9999999999674 0.0001907072443121912 0.0
919.9999999999709 9.414113908961937e-05 0.0
929.9999999999746 -6.619393972213841e-05 0.0
939.9999999999782 -0.0001816908145911242 0.0
949.9999999999818 -0.00017411464329663965 0.0
959.9999999999854 -4.859734448612107e-05 0.0
969.9999999999891 0.0001098386422328769 0.0
979.9999999999927 0.00019387253924535284 0.0
989.9999999999964 0.00014658177889378832 0.0

CELLS 100 300
2 0 2
2 2 3
2 3 4
2 4 5
2 5 6
2 6 7
2 7 8
2 8 9
2 9 10
2 10 11
2 11 12
2 12 13
2 13 14
2 14 15
2 15 16
2 16 17
2 17 18
2 18 19
2 19 20
2 20 21
2 21 22
2 22 23
2 23 24
2 24 25
2 25 26
2 26 27
2 27 28
2 28 29
2 29 30
2 30 31
2 31 32
2 32 33
2 33 34
2 34 35
2 35 36
2 36 37
2 37 38
2 38 39
2 39 40
2 40 41
2 41 42
2 42 43
2 43 44
2 44 45
2 45 46
2 46 47
2 47 48
2 48 49
2 49 50
2 50 51
2 51 52
2 52 53
2 53 54
2 54 55
2 55 56
2 56 57
2 57 58
2 58 59
2 59 60
2 60 61
2 61 62
2 62 63
2 63 64
2 64 65
2 65 66
2 66 67
2 67 68
2 68 69
2 69 70
2 70 71
2 71 72
2 72 73
2 73 74
2 74 75
2 75 76
2 76 77
2 77 78
2 78 79
2 79 80
2 80 81
2 81 82
2 82 83
2 83 84
2 84 85
2 85 86
2 86 87
2 87 88
2 88 89
2 89 90
2 90 91
2 91 92
2 92 93
2 93 94
2 94 95
2 95 96
2 96 97
2 97 98
2 98 99
2 99 100
2 100 1

CELL_TYPES 100
3
3
3
3
3
3
3
3
3
3
3
3
3
3
3
3
3
3
3
3
3
3
3
3
3
3
3
3
3
3
3
3
3
3
3
3
3
3
3
3
3
3
3
3
3
3
3
3
3
3
3
3
3
3
3
3
3
3
3
3
3
3
3
3
3
3
3
3
3
3
3
3
3
3
3
3
3
3
3
3
3
3
3
3
3
3
3
3
3
3
3
3
3
3
3
3
3
3
3
3

POINT_DATA 101
SCALARS MODE1_0.1446_Hz float 1
LOOKUP_TABLE default
0.0
0.0
-4.275301884399311e-06
-5.654615727990507e-06
-3.2036270651356684e-06
1.4174225474947686e-06
5.078343762807542e-06
5.299315425585834e-06
1.930656575261243e-06
-2.7457832234171763e-06
-5.5622946257648474e-06
-4.611039645468782e-06
-5.363758322855716e-07
3.9016162411420855e-06
5.696746060697821e-06
3.633035286218915e-06
-8.916073768541408e-07
-4.81229636126924e-06
-5.473249989483348e-06
-2.4267539586037755e-06
2.263567615384101e-06
5.42060220264263e-06
4.905849492247121e-06
1.0679907548029041e-06
-3.4932995758295522e-06
-5.688311672066205e-06
-4.030196428981172e-06
3.5787823592132147e-07
4.503534676496626e-06
5.598603599003921e-06
2.901311302030755e-06
-1.761260420944187e-06
-5.230796130620576e-06
-5.1571146715902105e-06
-1.590126115691632e-06
3.053976136255254e-06
5.629387426331895e-06
4.391585262816238e-06
1.7902745742777464e-07
-4.154799299184894e-06
-5.674263606604545e-06
-3.3501164008559388e-06
1.2433201544033178e-06
4.994561141861259e-06
5.362604935988945e-06
2.098147404561579e-06
-2.58754538832073e-06
-5.5204963392803386e-06
-4.713994074960484e-06
-7.143440903909864e-07
3.76918562916208e-06
5.699558448733718e-06
3.7691856293234795e-06
-7.143440901850433e-07
-4.7139940748437604e-06
-5.520496339331918e-06
-2.5875453885056525e-06
2.098147404368539e-06
5.362604935918533e-06
4.994561141961225e-06
1.243320154606009e-06
-3.350116400687838e-06
-5.67426360658492e-06
-4.154799299327092e-06
1.7902745721998538e-07
4.391585262683686e-06
5.6293874263643535e-06
3.0539761364308223e-06
-1.5901261154918475e-06
-5.157114671501547e-06
-5.230796130703132e-06
-1.7612604211420778e-06
2.90131130185159e-06
5.598603598964868e-06
4.50353467662419e-06
3.578782361292091e-07
-4.0301964288376835e-06
-5.688311672078092e-06
-3.4932995759682094e-06
1.067990754643998e-06
4.905849492171758e-06
5.420602202684148e-06
2.2635676154948483e-06
-2.4267539585070075e-06
-5.473249989457373e-06
-4.812296361311882e-06
-8.916073769192223e-07
3.6330352861787965e-06
5.69674606069657e-06
3.901616241167427e-06
-5.363758322514476e-07
-4.611039645448556e-06
-5.5622946257722446e-06
-2.7457832234472324e-06
1.9306565752290374e-06
5.2993154255744575e-06
5.078343762818658e-06
1.4174225475118649e-06
-3.2036270651255772e-06
-5.654615727989459e-06
-4.27530188440216e-06

