# vtk DataFile Version 2.0
mesh vtk view
ASCII
DATASET UNSTRUCTURED_GRID
POINTS 89 double
0.0 0.0 0.0
5.0 0.0 0.0
-1.684427919243838 1.932203037029773 1.7650744718559187e-13
3.3155720856746633 2.067797703085977 -1.472119259823314e-13
-4.211775984238191 3.8928028915309465 6.391687292780368e-13
0.7882232012750032 4.10720112179895 -4.674497083190046e-13
-5.979334701118696 5.878878577007052 1.0094289218027493e-12
-0.9793341360325245 6.121126415548289 -5.590775171361295e-13
-0.02844826625975208 0.1932173753226353 2.2980755184286913e-15
-0.10862582654112951 0.3864349931671989 8.431100392065111e-15
-0.23278316153885822 0.5796530066180978 1.7770574147032806e-14
-0.39317478343370926 0.7728715687563684 2.950197954035216e-14
-0.5820632194262088 0.9660908326618743 4.400300696310336e-14
-0.7917241822477163 1.1593109514183664 6.386593863006349e-14
-1.0144526742503326 1.3525320781159 8.620777431547698e-14
-1.2425697721354383 1.545754365860296 1.1159985094717051e-13
-1.4684298399987923 1.7389779677792703 1.4365228011242012e-13
4.971551733144624 0.20678227764259455 -2.1224626285398726e-15
4.891374167698268 0.41356446833147026 -7.945080844776606e-15
4.767216824774961 0.6203463956833947 -1.6931962310607567e-14
4.60682519400113 0.827127883327769 -2.906187328725999e-14
4.417936749980987 1.0339087549168255 -4.3764862754431194e-14
4.208275781784504 1.2406888341387619 -6.118062354729086e-14
3.985547288856603 1.447467944727947 -7.984171976941546e-14
3.757430196287789 1.6542459104825935 -1.0089889222342858e-13
3.5315701417683645 1.8610225552788187 -1.2302492623322962e-13
-1.1855801690002956 2.3120139168143616 4.395543988421647e-13
-0.6864765445891708 2.448484377428322 7.783352940948854e-13
-0.1871169099385106 2.401566485308888 9.387441278960161e-13
0.312498832160619 2.231747045378255 9.532075048894772e-13
0.812370740041394 2.0000004675254726 8.215831011941898e-13
1.3124988331463647 1.7682538806979373 6.10873999588019e-13
1.8128830920306964 1.5984344144389218 4.1102970687942224e-13
2.313523458363188 1.5515164804168515 1.9662652377603864e-13
2.814419834935046 1.6879868864800551 -1.7284749853458532e-14
-1.9073571110740877 2.1282539863031724 2.1626766523519933e-13
-2.1545261325555476 2.32430671465822 2.5966306947716944e-13
-2.4191865546270286 2.5203613078236478 3.062396964566232e-13
-2.6946607101126996 2.7164178515893593 3.5540600520401584e-13
-2.974350291066247 2.912476431817252 4.087328936687466e-13
-3.2517453011836546 3.108537134452561 4.585932735912193e-13
-3.520433147246899 3.304600045535416 5.103637120250079e-13
-3.7741076564550307 3.500665251212284 5.551672384154748e-13
-4.0065778096888405 3.6967328377469806 5.951633140591293e-13
3.092642925917618 2.271746991618317 -1.7518064903745635e-13
2.8454739384591763 2.4756945739546876 -2.0759261346471781e-13
2.5808135421380034 2.679640344067047 -2.4317426200864987e-13
2.3053393939021776 2.883584196077838 -2.801682137955266e-13
2.025649791465412 3.087526024275461 -3.172413711111288e-13
1.7482547208939723 3.291465723130276 -3.515373758712726e-13
1.47956676516181 3.495403187310805 -3.861423841905253e-13
1.2258920868169922 3.6993383116998277 -4.1756963428392864e-13
0.9934216947129242 3.903270991410035 -4.4512218927742734e-13
-3.714657174588368 4.240564227002239 3.2290990805698643e-13
-3.216898572232166 4.371472410823184 -8.838310148069536e-14
-2.718499836920807 4.339002499585651 -3.628993906814413e-13
-2.2194607255790806 4.197070016922598 -4.968340949385708e-13
-1.7197810923401948 4.000000905184308 -5.526113809713164e-13
-1.2194608885739515 3.802931879056906 -5.554825719549641e-13
-0.7185001628879437 3.660999654402641 -5.080527427681324e-13
-0.21689906112209334 3.628530177212576 -4.635947866029713e-13
0.2853421736734125 3.7594389775530606 -4.410952346561211e-13
-4.4056576535470615 4.091398208325232 6.878292559851463e-13
-4.605467272974834 4.289996171861596 7.324613296134244e-13
-4.807277093338748 4.488596810288945 7.756571791943658e-13
-5.007310243614426 4.687200151918081 8.178956744400414e-13
-5.201947300766842 4.885806225230878 8.569697939197563e-13
-5.387732803079301 5.084415058889375 8.932329476889034e-13
-5.561381588492684 5.283026681744587 9.268960733496878e-13
-5.7197848448361395 5.48164112284489 9.581874174451108e-13
-5.860015764405587 5.68025841144381 9.880812772790253e-13
0.5943411183565681 4.308605954746728 -4.839033035480329e-13
0.3945310292500208 4.510008158714033 -4.961123386605889e-13
0.19272075026770352 4.711407693737941 -5.074264287046572e-13
-0.007312780502758187 4.912804520147224 -5.168478391702183e-13
-0.20195007304384927 5.1141985985731715 -5.257396363313514e-13
-0.3877355987490292 5.3155898899603296 -5.337950363708558e-13
-0.5613841287690908 5.5169783555769625 -5.434919243713704e-13
-0.7197867842430528 5.718363957025078 -5.503856404556961e-13
-0.8600166908677513 5.919746656249851 -5.546661307439406e-13
-5.483424869891996 6.080293829121988 7.500967345213781e-13
-4.986606743771144 6.163903378424915 4.516860519620377e-13
-4.488879839741344 6.158822888686484 1.4738941861584198e-13
-3.990243812742149 6.094358828559784 -9.86554078450872e-14
-3.4906984557178338 6.000008220707173 -2.3081489427713145e-13
-2.990243699654822 5.905657134914466 -3.006181000297671e-13
-2.488879613585982 5.841191651384021 -3.5497965572187953e-13
-1.9866064045820928 5.8361088234197265 -4.0774580836487935e-13
-1.483424417720455 5.91971516872499 -4.810483198799815e-13

CELLS 90 270
2 0 8
2 8 9
2 9 10
2 10 11
2 11 12
2 12 13
2 13 14
2 14 15
2 15 16
2 16 2
2 1 17
2 17 18
2 18 19
2 19 20
2 20 21
2 21 22
2 22 23
2 23 24
2 24 25
2 25 3
2 2 26
2 26 27
2 27 28
2 28 29
2 29 30
2 30 31
2 31 32
2 32 33
2 33 34
2 34 3
2 2 35
2 35 36
2 36 37
2 37 38
2 38 39
2 39 40
2 40 41
2 41 42
2 42 43
2 43 4
2 3 44
2 44 45
2 45 46
2 46 47
2 47 48
2 48 49
2 49 50
2 50 51
2 51 52
2 52 5
2 4 53
2 53 54
2 54 55
2 55 56
2 56 57
2 57 58
2 58 59
2 59 60
2 60 61
2 61 5
2 4 62
2 62 63
2 63 64
2 64 65
2 65 66
2 66 67
2 67 68
2 68 69
2 69 70
2 70 6
2 5 71
2 71 72
2 72 73
2 73 74
2 74 75
2 75 76
2 76 77
2 77 78
2 78 79
2 79 7
2 6 80
2 80 81
2 81 82
2 82 83
2 83 84
2 84 85
2 85 86
2 86 87
2 87 88
2 88 7

CELL_TYPES 90
3
3
3
3
3
3
3
3
3
3
3
3
3
3
3
3
3
3
3
3
3
3
3
3
3
3
3
3
3
3
3
3
3
3
3
3
3
3
3
3
3
3
3
3
3
3
3
3
3
3
3
3
3
3
3
3
3
3
3
3
3
3
3
3
3
3
3
3
3
3
3
3
3
3
3
3
3
3
3
3
3
3
3
3
3
3
3
3
3
3

POINT_DATA 89
SCALARS MODE3_19.7959_Hz float 1
LOOKUP_TABLE default
0.0
0.0
0.00842895877809963
0.008428958902352856
0.02106569970441862
0.021065704286109887
0.029902806668902354
0.02990280434962054
0.0001462282334823463
0.0005473476866237185
0.001168353547044403
0.001970547906736685
0.0029152505168432374
0.003963845290340309
0.005077813092024696
0.006218766411933759
0.0073484860403609025
0.00014622783396988658
0.0005473473815682226
0.0011683533549960027
0.0019705478307199585
0.00291525054962212
0.003963845414911769
0.005077813281627815
0.006218766629930736
0.0073484862400344094
0.008571075181112836
0.008725453243587611
0.008671244302165516
0.008516699602084227
0.00843814629977435
0.008516698967225633
0.008671243250905862
0.008725452127001534
0.008571074430703311
0.00954353005921587
0.010779276795442492
0.012102485186295161
0.013479783305155556
0.014878188758173245
0.01626515674651195
0.01760862764069545
0.01887707339262975
0.020039542068053112
0.009543530058183902
0.01077927666680932
0.012102484974485603
0.013479783102751934
0.014878188706908527
0.016265157037895515
0.01760862851637113
0.018877075144551638
0.020039545038538092
0.02110758527557035
0.02116614355550101
0.02116049595874378
0.021120301493016327
0.021098905461682457
0.021120301864835923
0.021160496720647588
0.02116614485500447
0.021107587615908564
0.022034979980370288
0.023033904165733254
0.02404283870657604
0.025042903027371482
0.02601600273781094
0.026944862514024955
0.027813058052832434
0.02860504653685194
0.029306195081890085
0.02203498663195085
0.02303391316924055
0.02404285000739862
0.02504291623471192
0.02601601712520432
0.02694487701989406
0.02781307128105337
0.028605056757295605
0.029306200230894676
0.029919817960940315
0.029944250125026602
0.029954927159314925
0.029954934703888506
0.02995349227859837
0.02995493288150151
0.02995492410171848
0.029944246760073127
0.029919815096645035

