# vtk DataFile Version 2.0
mesh vtk view
ASCII
DATASET UNSTRUCTURED_GRID
POINTS 89 double
0.0 0.0 0.0
5.0 0.0 0.0
-8.0445237027546e-16 2.0 -1.065550381606298
4.999999999999999 2.0 -1.0655178945348034
-9.947299343638078e-16 4.0 -3.5895010748086404
4.999999999999999 4.0 -3.5894043140024845
-1.0049985926527097e-15 6.0 -6.6928297814909845
4.999999999999999 6.0 -6.692668424758025
-1.966721107155893e-17 0.1999999999996283 -0.012210709294568366
-7.198643956888401e-17 0.3999999999991138 -0.04815095143682396
-1.5029056826532583e-16 0.59999999999853 -0.10678297953679694
-2.442748904943129e-16 0.7999999999979462 -0.18706930429398388
-3.471951833642431e-16 0.9999999999973842 -0.28797296804952044
-4.546937896115886e-16 1.19999999999789 -0.40845792058552544
-5.610052953410549e-16 1.399999999998418 -0.5474894917966349
-6.614112820776091e-16 1.599999999998945 -0.7040349563723375
-7.41482935271338e-16 1.799999999999472 -0.8770641856238172
5.0 0.1999999999996283 -0.012210226755851065
5.0 0.3999999999991138 -0.04814909106517225
5.0 0.59999999999853 -0.10677895088757205
5.0 0.7999999999979462 -0.18706242199952325
5.0 0.9999999999973842 -0.2879626520364925
5.0 1.19999999999789 -0.40844369627902366
4.999999999999999 1.399999999998418 -0.5474709903082811
4.999999999999999 1.599999999998945 -0.7040119146701722
4.999999999999999 1.799999999999472 -0.8770364466822376
0.49999999999959355 2.0 -1.0753990386300103
0.9999999999984113 2.0 -1.0839929980923486
1.499999999996951 2.0 -1.0906320026924992
1.9999999999955071 2.0 -1.0948146919391544
2.499999999996198 2.0 -1.0962398053399678
2.9999999999969593 1.9999999999999998 -1.0948069424250122
3.4999999999977183 1.9999999999999998 -1.0906168196955077
3.999999999998479 1.9999999999999998 -1.0839710091701487
4.499999999999239 1.9999999999999998 -1.0753711800991268
-8.6735068602718235e-16 2.2 -1.268481713037392
-9.08937258233702e-16 2.4 -1.4848938644297416
-9.544313288356989e-16 2.6 -1.7138389192838273
-9.748808567114781e-16 2.8 -1.9543759553324238
-9.93491231035364e-16 3.0 -2.2055721189662214
-1.01330024794751e-15 3.2 -2.466503754137191
-1.0166407980109903e-15 3.4 -2.7362575813581
-1.005588874575382e-15 3.6 -3.0139319224598826
-1.0060132014544157e-15 3.8 -3.298637966817392
4.999999999999999 2.2 -1.2684441307481256
4.999999999999999 2.4 -1.4848505563972958
4.999999999999999 2.6 -1.7137893803943027
4.999999999999999 2.8 -1.9543198059326787
4.999999999999999 3.0 -2.2055091048840323
4.999999999999999 3.2 -2.4664337466705057
4.999999999999999 3.4 -2.7361805772322296
4.999999999999999 3.6 -3.013848043751989
4.999999999999999 3.8 -3.2985474608482903
0.4999999999995934 4.0 -3.610728140963939
0.999999999998411 3.9999999999999996 -3.630360791050448
1.499999999996951 3.9999999999999996 -3.646057318337009
1.9999999999955071 3.9999999999999996 -3.656142213904208
2.499999999996198 3.9999999999999996 -3.659608996338295
2.9999999999969593 3.9999999999999996 -3.6561220359351365
3.4999999999977183 3.9999999999999996 -3.6460171767227463
3.999999999998479 4.0 -3.6303011027304883
4.499999999999239 4.0 -3.610649518138724
-9.776488904757013e-16 4.2 -3.885697941870946
-9.788434019518625e-16 4.4 -4.186564419417771
-9.614830792647967e-16 4.6 -4.491489936656769
-9.581608843733745e-16 4.8 -4.799883599483824
-9.61391718579979e-16 5.0 -5.111175622398855
-9.651634419229655e-16 5.2 -5.42481877674644
-9.731910809979238e-16 5.4 -5.740289852606029
-9.836019204264861e-16 5.6 -6.057091131762652
-9.910992774062934e-16 5.8 -6.374751869301659
4.999999999999999 4.2 -3.8855949093715445
4.999999999999999 4.4 -4.186454715764065
4.999999999999999 4.6 -4.491373297158135
4.999999999999999 4.8 -4.799759893898752
4.999999999999999 5.0 -5.111044854581193
4.999999999999999 5.2 -5.424681084258637
4.999999999999999 5.4 -5.74014550629941
4.999999999999999 5.6 -6.05694053532529
4.999999999999999 5.8 -6.374595558775127
0.4999999999995934 6.0 -6.723505496573648
0.999999999998411 6.0 -6.753172100511604
1.4999999999969509 6.0 -6.777475297951109
1.999999999995507 6.0 -6.793300110023187
2.499999999996198 6.0 -6.798775239677041
2.9999999999969593 6.0 -6.793275923657384
3.4999999999977183 6.0 -6.777424913574502
3.999999999998479 6.0 -6.75309148088046
4.499999999999239 6.0 -6.723388569474525

CELLS 90 270
2 0 8
2 8 9
2 9 10
2 10 11
2 11 12
2 12 13
2 13 14
2 14 15
2 15 16
2 16 2
2 1 17
2 17 18
2 18 19
2 19 20
2 20 21
2 21 22
2 22 23
2 23 24
2 24 25
2 25 3
2 2 26
2 26 27
2 27 28
2 28 29
2 29 30
2 30 31
2 31 32
2 32 33
2 33 34
2 34 3
2 2 35
2 35 36
2 36 37
2 37 38
2 38 39
2 39 40
2 40 41
2 41 42
2 42 43
2 43 4
2 3 44
2 44 45
2 45 46
2 46 47
2 47 48
2 48 49
2 49 50
2 50 51
2 51 52
2 52 5
2 4 53
2 53 54
2 54 55
2 55 56
2 56 57
2 57 58
2 58 59
2 59 60
2 60 61
2 61 5
2 4 62
2 62 63
2 63 64
2 64 65
2 65 66
2 66 67
2 67 68
2 68 69
2 69 70
2 70 6
2 5 71
2 71 72
2 72 73
2 73 74
2 74 75
2 75 76
2 76 77
2 77 78
2 78 79
2 79 7
2 6 80
2 80 81
2 81 82
2 82 83
2 83 84
2 84 85
2 85 86
2 86 87
2 87 88
2 88 7

CELL_TYPES 90
3
3
3
3
3
3
3
3
3
3
3
3
3
3
3
3
3
3
3
3
3
3
3
3
3
3
3
3
3
3
3
3
3
3
3
3
3
3
3
3
3
3
3
3
3
3
3
3
3
3
3
3
3
3
3
3
3
3
3
3
3
3
3
3
3
3
3
3
3
3
3
3
3
3
3
3
3
3
3
3
3
3
3
3
3
3
3
3
3
3

POINT_DATA 89
SCALARS MODE1_4.1397_Hz float 1
LOOKUP_TABLE default
0.0
0.0
0.00532775190803149
0.005327589472674017
0.0179475053740432
0.017947021570012423
0.03346414890745492
0.033463342123790124
6.105354647284183e-05
0.00024075475718411983
0.0005339148976839847
0.0009353465214699194
0.0014398648402476023
0.002042289602927627
0.0027374474589831744
0.0035201747818616874
0.004385320928119086
6.105113377925533e-05
0.00024074545532586124
0.0005338947544378603
0.0009353121099976163
0.0014398132601824627
0.0020422184813951184
0.002737354951541405
0.003520059573350861
0.004385182233411188
0.005376995193150051
0.005419964990461743
0.005453160013462495
0.005474073459695771
0.0054811990266998385
0.005474034712125061
0.005453084098477539
0.005419855045850743
0.0053768559004956345
0.00634240856518696
0.007424469322148707
0.008569194596419137
0.009771879776662119
0.011027860594831107
0.012332518770685955
0.0136812879067905
0.015069659612299413
0.01649318983408696
0.006342220653740628
0.007424252781986479
0.008568946901971514
0.009771599029663394
0.011027545524420162
0.012332168733352529
0.013680902886161148
0.015069240218759945
0.016492737304241452
0.018053640704819695
0.01815180395525224
0.018230286591685047
0.01828071106952104
0.018298044981691474
0.018280610179675683
0.01823008588361373
0.018151505513652442
0.01805324759069362
0.01942848970935473
0.020932822097088858
0.022457449683283844
0.023999417997419118
0.025555878111994276
0.027124093883732197
0.028701449263030143
0.03028545565881326
0.031873759346508296
0.019427974546857723
0.020932273578820326
0.022456866485790674
0.02399879946949376
0.025555224272905963
0.027123405421293184
0.028700727531497047
0.03028470267662645
0.031872977793875636
0.03361752748286824
0.03376586050255802
0.033887376489755545
0.033966500550115936
0.0339938761983852
0.03396637961828692
0.03388712456787251
0.0337654574044023
0.03361694284737263

