# vtk DataFile Version 4.0
vtk output from myfempy solver
ASCII
DATASET UNSTRUCTURED_GRID
POINTS 1701 double
0.0 0.0 0.0
50.0 0.0 0.0
100.0 0.0 0.0
150.0 0.0 0.0
200.0 0.0 0.0
250.0 0.0 0.0
300.0 0.0 0.0
350.0 0.0 0.0
400.0 0.0 0.0
450.0 0.0 0.0
500.0 0.0 0.0
550.0 0.0 0.0
600.0 0.0 0.0
650.0 0.0 0.0
700.0 0.0 0.0
750.0 0.0 0.0
800.0 0.0 0.0
850.0 0.0 0.0
900.0 0.0 0.0
950.0 0.0 0.0
1000.0 0.0 0.0
1050.0 0.0 0.0
1100.0 0.0 0.0
1150.0 0.0 0.0
1200.0 0.0 0.0
1250.0 0.0 0.0
1300.0 0.0 0.0
1350.0 0.0 0.0
1400.0 0.0 0.0
1450.0 0.0 0.0
1500.0 0.0 0.0
1550.0 0.0 0.0
1600.0 0.0 0.0
1650.0 0.0 0.0
1700.0 0.0 0.0
1750.0 0.0 0.0
1800.0 0.0 0.0
1850.0 0.0 0.0
1900.0 0.0 0.0
1950.0 0.0 0.0
2000.0 0.0 0.0
2050.0 0.0 0.0
2100.0 0.0 0.0
2150.0 0.0 0.0
2200.0 0.0 0.0
2250.0 0.0 0.0
2300.0 0.0 0.0
2350.0 0.0 0.0
2400.0 0.0 0.0
2450.0 0.0 0.0
2500.0 0.0 0.0
2550.0 0.0 0.0
2600.0 0.0 0.0
2650.0 0.0 0.0
2700.0 0.0 0.0
2750.0 0.0 0.0
2800.0 0.0 0.0
2850.0 0.0 0.0
2900.0 0.0 0.0
2950.0 0.0 0.0
3000.0 0.0 0.0
3050.0 0.0 0.0
3100.0 0.0 0.0
3150.0 0.0 0.0
3200.0 0.0 0.0
3250.0 0.0 0.0
3300.0 0.0 0.0
3350.0 0.0 0.0
3400.0 0.0 0.0
3450.0 0.0 0.0
3500.0 0.0 0.0
3550.0 0.0 0.0
3600.0 0.0 0.0
3650.0 0.0 0.0
3700.0 0.0 0.0
3750.0 0.0 0.0
3800.0 0.0 0.0
3850.0 0.0 0.0
3900.0 0.0 0.0
3950.0 0.0 0.0
4000.0 0.0 0.0
0.0 50.0 0.0
50.0 50.0 0.0
100.0 50.0 0.0
150.0 50.0 0.0
200.0 50.0 0.0
250.0 50.0 0.0
300.0 50.0 0.0
350.0 50.0 0.0
400.0 50.0 0.0
450.0 50.0 0.0
500.0 50.0 0.0
550.0 50.0 0.0
600.0 50.0 0.0
650.0 50.0 0.0
700.0 50.0 0.0
750.0 50.0 0.0
800.0 50.0 0.0
850.0 50.0 0.0
900.0 50.0 0.0
950.0 50.0 0.0
1000.0 50.0 0.0
1050.0 50.0 0.0
1100.0 50.0 0.0
1150.0 50.0 0.0
1200.0 50.0 0.0
1250.0 50.0 0.0
1300.0 50.0 0.0
1350.0 50.0 0.0
1400.0 50.0 0.0
1450.0 50.0 0.0
1500.0 50.0 0.0
1550.0 50.0 0.0
1600.0 50.0 0.0
1650.0 50.0 0.0
1700.0 50.0 0.0
1750.0 50.0 0.0
1800.0 50.0 0.0
1850.0 50.0 0.0
1900.0 50.0 0.0
1950.0 50.0 0.0
2000.0 50.0 0.0
2050.0 50.0 0.0
2100.0 50.0 0.0
2150.0 50.0 0.0
2200.0 50.0 0.0
2250.0 50.0 0.0
2300.0 50.0 0.0
2350.0 50.0 0.0
2400.0 50.0 0.0
2450.0 50.0 0.0
2500.0 50.0 0.0
2550.0 50.0 0.0
2600.0 50.0 0.0
2650.0 50.0 0.0
2700.0 50.0 0.0
2750.0 50.0 0.0
2800.0 50.0 0.0
2850.0 50.0 0.0
2900.0 50.0 0.0
2950.0 50.0 0.0
3000.0 50.0 0.0
3050.0 50.0 0.0
3100.0 50.0 0.0
3150.0 50.0 0.0
3200.0 50.0 0.0
3250.0 50.0 0.0
3300.0 50.0 0.0
3350.0 50.0 0.0
3400.0 50.0 0.0
3450.0 50.0 0.0
3500.0 50.0 0.0
3550.0 50.0 0.0
3600.0 50.0 0.0
3650.0 50.0 0.0
3700.0 50.0 0.0
3750.0 50.0 0.0
3800.0 50.0 0.0
3850.0 50.0 0.0
3900.0 50.0 0.0
3950.0 50.0 0.0
4000.0 50.0 0.0
0.0 100.0 0.0
50.0 100.0 0.0
100.0 100.0 0.0
150.0 100.0 0.0
200.0 100.0 0.0
250.0 100.0 0.0
300.0 100.0 0.0
350.0 100.0 0.0
400.0 100.0 0.0
450.0 100.0 0.0
500.0 100.0 0.0
550.0 100.0 0.0
600.0 100.0 0.0
650.0 100.0 0.0
700.0 100.0 0.0
750.0 100.0 0.0
800.0 100.0 0.0
850.0 100.0 0.0
900.0 100.0 0.0
950.0 100.0 0.0
1000.0 100.0 0.0
1050.0 100.0 0.0
1100.0 100.0 0.0
1150.0 100.0 0.0
1200.0 100.0 0.0
1250.0 100.0 0.0
1300.0 100.0 0.0
1350.0 100.0 0.0
1400.0 100.0 0.0
1450.0 100.0 0.0
1500.0 100.0 0.0
1550.0 100.0 0.0
1600.0 100.0 0.0
1650.0 100.0 0.0
1700.0 100.0 0.0
1750.0 100.0 0.0
1800.0 100.0 0.0
1850.0 100.0 0.0
1900.0 100.0 0.0
1950.0 100.0 0.0
2000.0 100.0 0.0
2050.0 100.0 0.0
2100.0 100.0 0.0
2150.0 100.0 0.0
2200.0 100.0 0.0
2250.0 100.0 0.0
2300.0 100.0 0.0
2350.0 100.0 0.0
2400.0 100.0 0.0
2450.0 100.0 0.0
2500.0 100.0 0.0
2550.0 100.0 0.0
2600.0 100.0 0.0
2650.0 100.0 0.0
2700.0 100.0 0.0
2750.0 100.0 0.0
2800.0 100.0 0.0
2850.0 100.0 0.0
2900.0 100.0 0.0
2950.0 100.0 0.0
3000.0 100.0 0.0
3050.0 100.0 0.0
3100.0 100.0 0.0
3150.0 100.0 0.0
3200.0 100.0 0.0
3250.0 100.0 0.0
3300.0 100.0 0.0
3350.0 100.0 0.0
3400.0 100.0 0.0
3450.0 100.0 0.0
3500.0 100.0 0.0
3550.0 100.0 0.0
3600.0 100.0 0.0
3650.0 100.0 0.0
3700.0 100.0 0.0
3750.0 100.0 0.0
3800.0 100.0 0.0
3850.0 100.0 0.0
3900.0 100.0 0.0
3950.0 100.0 0.0
4000.0 100.0 0.0
0.0 150.0 0.0
50.0 150.0 0.0
100.0 150.0 0.0
150.0 150.0 0.0
200.0 150.0 0.0
250.0 150.0 0.0
300.0 150.0 0.0
350.0 150.0 0.0
400.0 150.0 0.0
450.0 150.0 0.0
500.0 150.0 0.0
550.0 150.0 0.0
600.0 150.0 0.0
650.0 150.0 0.0
700.0 150.0 0.0
750.0 150.0 0.0
800.0 150.0 0.0
850.0 150.0 0.0
900.0 150.0 0.0
950.0 150.0 0.0
1000.0 150.0 0.0
1050.0 150.0 0.0
1100.0 150.0 0.0
1150.0 150.0 0.0
1200.0 150.0 0.0
1250.0 150.0 0.0
1300.0 150.0 0.0
1350.0 150.0 0.0
1400.0 150.0 0.0
1450.0 150.0 0.0
1500.0 150.0 0.0
1550.0 150.0 0.0
1600.0 150.0 0.0
1650.0 150.0 0.0
1700.0 150.0 0.0
1750.0 150.0 0.0
1800.0 150.0 0.0
1850.0 150.0 0.0
1900.0 150.0 0.0
1950.0 150.0 0.0
2000.0 150.0 0.0
2050.0 150.0 0.0
2100.0 150.0 0.0
2150.0 150.0 0.0
2200.0 150.0 0.0
2250.0 150.0 0.0
2300.0 150.0 0.0
2350.0 150.0 0.0
2400.0 150.0 0.0
2450.0 150.0 0.0
2500.0 150.0 0.0
2550.0 150.0 0.0
2600.0 150.0 0.0
2650.0 150.0 0.0
2700.0 150.0 0.0
2750.0 150.0 0.0
2800.0 150.0 0.0
2850.0 150.0 0.0
2900.0 150.0 0.0
2950.0 150.0 0.0
3000.0 150.0 0.0
3050.0 150.0 0.0
3100.0 150.0 0.0
3150.0 150.0 0.0
3200.0 150.0 0.0
3250.0 150.0 0.0
3300.0 150.0 0.0
3350.0 150.0 0.0
3400.0 150.0 0.0
3450.0 150.0 0.0
3500.0 150.0 0.0
3550.0 150.0 0.0
3600.0 150.0 0.0
3650.0 150.0 0.0
3700.0 150.0 0.0
3750.0 150.0 0.0
3800.0 150.0 0.0
3850.0 150.0 0.0
3900.0 150.0 0.0
3950.0 150.0 0.0
4000.0 150.0 0.0
0.0 200.0 0.0
50.0 200.0 0.0
100.0 200.0 0.0
150.0 200.0 0.0
200.0 200.0 0.0
250.0 200.0 0.0
300.0 200.0 0.0
350.0 200.0 0.0
400.0 200.0 0.0
450.0 200.0 0.0
500.0 200.0 0.0
550.0 200.0 0.0
600.0 200.0 0.0
650.0 200.0 0.0
700.0 200.0 0.0
750.0 200.0 0.0
800.0 200.0 0.0
850.0 200.0 0.0
900.0 200.0 0.0
950.0 200.0 0.0
1000.0 200.0 0.0
1050.0 200.0 0.0
1100.0 200.0 0.0
1150.0 200.0 0.0
1200.0 200.0 0.0
1250.0 200.0 0.0
1300.0 200.0 0.0
1350.0 200.0 0.0
1400.0 200.0 0.0
1450.0 200.0 0.0
1500.0 200.0 0.0
1550.0 200.0 0.0
1600.0 200.0 0.0
1650.0 200.0 0.0
1700.0 200.0 0.0
1750.0 200.0 0.0
1800.0 200.0 0.0
1850.0 200.0 0.0
1900.0 200.0 0.0
1950.0 200.0 0.0
2000.0 200.0 0.0
2050.0 200.0 0.0
2100.0 200.0 0.0
2150.0 200.0 0.0
2200.0 200.0 0.0
2250.0 200.0 0.0
2300.0 200.0 0.0
2350.0 200.0 0.0
2400.0 200.0 0.0
2450.0 200.0 0.0
2500.0 200.0 0.0
2550.0 200.0 0.0
2600.0 200.0 0.0
2650.0 200.0 0.0
2700.0 200.0 0.0
2750.0 200.0 0.0
2800.0 200.0 0.0
2850.0 200.0 0.0
2900.0 200.0 0.0
2950.0 200.0 0.0
3000.0 200.0 0.0
3050.0 200.0 0.0
3100.0 200.0 0.0
3150.0 200.0 0.0
3200.0 200.0 0.0
3250.0 200.0 0.0
3300.0 200.0 0.0
3350.0 200.0 0.0
3400.0 200.0 0.0
3450.0 200.0 0.0
3500.0 200.0 0.0
3550.0 200.0 0.0
3600.0 200.0 0.0
3650.0 200.0 0.0
3700.0 200.0 0.0
3750.0 200.0 0.0
3800.0 200.0 0.0
3850.0 200.0 0.0
3900.0 200.0 0.0
3950.0 200.0 0.0
4000.0 200.0 0.0
0.0 250.0 0.0
50.0 250.0 0.0
100.0 250.0 0.0
150.0 250.0 0.0
200.0 250.0 0.0
250.0 250.0 0.0
300.0 250.0 0.0
350.0 250.0 0.0
400.0 250.0 0.0
450.0 250.0 0.0
500.0 250.0 0.0
550.0 250.0 0.0
600.0 250.0 0.0
650.0 250.0 0.0
700.0 250.0 0.0
750.0 250.0 0.0
800.0 250.0 0.0
850.0 250.0 0.0
900.0 250.0 0.0
950.0 250.0 0.0
1000.0 250.0 0.0
1050.0 250.0 0.0
1100.0 250.0 0.0
1150.0 250.0 0.0
1200.0 250.0 0.0
1250.0 250.0 0.0
1300.0 250.0 0.0
1350.0 250.0 0.0
1400.0 250.0 0.0
1450.0 250.0 0.0
1500.0 250.0 0.0
1550.0 250.0 0.0
1600.0 250.0 0.0
1650.0 250.0 0.0
1700.0 250.0 0.0
1750.0 250.0 0.0
1800.0 250.0 0.0
1850.0 250.0 0.0
1900.0 250.0 0.0
1950.0 250.0 0.0
2000.0 250.0 0.0
2050.0 250.0 0.0
2100.0 250.0 0.0
2150.0 250.0 0.0
2200.0 250.0 0.0
2250.0 250.0 0.0
2300.0 250.0 0.0
2350.0 250.0 0.0
2400.0 250.0 0.0
2450.0 250.0 0.0
2500.0 250.0 0.0
2550.0 250.0 0.0
2600.0 250.0 0.0
2650.0 250.0 0.0
2700.0 250.0 0.0
2750.0 250.0 0.0
2800.0 250.0 0.0
2850.0 250.0 0.0
2900.0 250.0 0.0
2950.0 250.0 0.0
3000.0 250.0 0.0
3050.0 250.0 0.0
3100.0 250.0 0.0
3150.0 250.0 0.0
3200.0 250.0 0.0
3250.0 250.0 0.0
3300.0 250.0 0.0
3350.0 250.0 0.0
3400.0 250.0 0.0
3450.0 250.0 0.0
3500.0 250.0 0.0
3550.0 250.0 0.0
3600.0 250.0 0.0
3650.0 250.0 0.0
3700.0 250.0 0.0
3750.0 250.0 0.0
3800.0 250.0 0.0
3850.0 250.0 0.0
3900.0 250.0 0.0
3950.0 250.0 0.0
4000.0 250.0 0.0
0.0 300.0 0.0
50.0 300.0 0.0
100.0 300.0 0.0
150.0 300.0 0.0
200.0 300.0 0.0
250.0 300.0 0.0
300.0 300.0 0.0
350.0 300.0 0.0
400.0 300.0 0.0
450.0 300.0 0.0
500.0 300.0 0.0
550.0 300.0 0.0
600.0 300.0 0.0
650.0 300.0 0.0
700.0 300.0 0.0
750.0 300.0 0.0
800.0 300.0 0.0
850.0 300.0 0.0
900.0 300.0 0.0
950.0 300.0 0.0
1000.0 300.0 0.0
1050.0 300.0 0.0
1100.0 300.0 0.0
1150.0 300.0 0.0
1200.0 300.0 0.0
1250.0 300.0 0.0
1300.0 300.0 0.0
1350.0 300.0 0.0
1400.0 300.0 0.0
1450.0 300.0 0.0
1500.0 300.0 0.0
1550.0 300.0 0.0
1600.0 300.0 0.0
1650.0 300.0 0.0
1700.0 300.0 0.0
1750.0 300.0 0.0
1800.0 300.0 0.0
1850.0 300.0 0.0
1900.0 300.0 0.0
1950.0 300.0 0.0
2000.0 300.0 0.0
2050.0 300.0 0.0
2100.0 300.0 0.0
2150.0 300.0 0.0
2200.0 300.0 0.0
2250.0 300.0 0.0
2300.0 300.0 0.0
2350.0 300.0 0.0
2400.0 300.0 0.0
2450.0 300.0 0.0
2500.0 300.0 0.0
2550.0 300.0 0.0
2600.0 300.0 0.0
2650.0 300.0 0.0
2700.0 300.0 0.0
2750.0 300.0 0.0
2800.0 300.0 0.0
2850.0 300.0 0.0
2900.0 300.0 0.0
2950.0 300.0 0.0
3000.0 300.0 0.0
3050.0 300.0 0.0
3100.0 300.0 0.0
3150.0 300.0 0.0
3200.0 300.0 0.0
3250.0 300.0 0.0
3300.0 300.0 0.0
3350.0 300.0 0.0
3400.0 300.0 0.0
3450.0 300.0 0.0
3500.0 300.0 0.0
3550.0 300.0 0.0
3600.0 300.0 0.0
3650.0 300.0 0.0
3700.0 300.0 0.0
3750.0 300.0 0.0
3800.0 300.0 0.0
3850.0 300.0 0.0
3900.0 300.0 0.0
3950.0 300.0 0.0
4000.0 300.0 0.0
0.0 350.0 0.0
50.0 350.0 0.0
100.0 350.0 0.0
150.0 350.0 0.0
200.0 350.0 0.0
250.0 350.0 0.0
300.0 350.0 0.0
350.0 350.0 0.0
400.0 350.0 0.0
450.0 350.0 0.0
500.0 350.0 0.0
550.0 350.0 0.0
600.0 350.0 0.0
650.0 350.0 0.0
700.0 350.0 0.0
750.0 350.0 0.0
800.0 350.0 0.0
850.0 350.0 0.0
900.0 350.0 0.0
950.0 350.0 0.0
1000.0 350.0 0.0
1050.0 350.0 0.0
1100.0 350.0 0.0
1150.0 350.0 0.0
1200.0 350.0 0.0
1250.0 350.0 0.0
1300.0 350.0 0.0
1350.0 350.0 0.0
1400.0 350.0 0.0
1450.0 350.0 0.0
1500.0 350.0 0.0
1550.0 350.0 0.0
1600.0 350.0 0.0
1650.0 350.0 0.0
1700.0 350.0 0.0
1750.0 350.0 0.0
1800.0 350.0 0.0
1850.0 350.0 0.0
1900.0 350.0 0.0
[...]
POINT_DATA 1701

FIELD FieldData 1
DISPLACEMENT 3 1701 float
0.0 0.0 0.0
0.03592966745022865 0.02613278992428308 0.0
0.06298504007930922 0.040881069518352006 0.0
0.08721406026722903 0.051976715142406205 0.0
0.1105038672013593 0.06016573577997809 0.0
0.1334450214191971 0.06636949909875675 0.0
0.156322668727991 0.07107307351863335 0.0
0.1792795444726374 0.07462874561839732 0.0
0.20239097293322483 0.07729371851278609 0.0
0.2256933080397374 0.07926591264382297 0.0
0.2491995047229703 0.080700409907129 0.0
0.27290800933191617 0.08172014026424174 0.0
0.2968083891110446 0.08242289090326202 0.0
0.32088505043665 0.08288635810931834 0.0
0.3451197650477247 0.08317198130809036 0.0
0.3694933947089236 0.08332798139829428 0.0
0.39398705222655683 0.08339183462298543 0.0
0.4185828549453673 0.08339231862323135 0.0
0.44326438069887913 0.08335121590881218 0.0
0.46801690746277325 0.08328473259541916 0.0
0.4928274984487562 0.08320467537013083 0.0
0.5176849800473011 0.08311942130832704 0.0
0.5425798489353981 0.08303471010907944 0.0
0.5675041358345013 0.08295428482108078 0.0
0.5924512463123129 0.0828804043254769 0.0
0.6174157933511848 0.08281424832205432 0.0
0.6423934319261152 0.0827562331745394 0.0
0.6673807023572674 0.08270625467396492 0.0
0.6923748865584591 0.08266387159252576 0.0
0.7173738793441117 0.08262844185539722 0.0
0.7423760755493368 0.08259922128346281 0.0
0.767380272744846 0.08257543317513652 0.0
0.7923855886912735 0.08255631550888924 0.0
0.817391392293832 0.08254115125845421 0.0
0.842397246620871 0.08252928621128984 0.0
0.8674028624853084 0.0825201377537983 0.0
0.8924080611142274 0.08251319731714976 0.0
0.9174127445171475 0.08250802854700108 0.0
0.9424168722836652 0.08250426275046704 0.0
0.9674204436788382 0.08250159276671684 0.0
0.9924234840475338 0.08249976608706744 0.0
1.0174260346786357 0.08249857780166292 0.0
1.0424281454110609 0.0824978637596796 0.0
1.0674298693829387 0.08249749418718251 0.0
1.0924312594314747 0.0824973679016675 0.0
1.1174323657435463 0.08249740718687186 0.0
1.1424332344364367 0.0824975533389321 0.0
1.1674339068150577 0.08249776286002142 0.0
1.1924344191077378 0.08249800425372238 0.0
1.217434802528449 0.08249825536418304 0.0
1.242435083550432 0.08249850119576642 0.0
1.2674352843059031 0.08249873214934157 0.0
1.292435423049963 0.08249894261396058 0.0
1.3174355146451353 0.08249912985720743 0.0
1.3424355710369449 0.08249929316312869 0.0
1.3674356017015408 0.08249943317271329 0.0
1.392435614054195 0.0824995513879512 0.0
1.4174356138131605 0.08249964980631186 0.0
1.4424356053173275 0.08249973065779782 0.0
1.4674355917988229 0.08249979622156067 0.0
1.4924355756133663 0.08249984870326045 0.0
1.5174355584322214 0.0824998901580067 0.0
1.5424355414000237 0.08249992244681559 0.0
1.5674355252628795 0.08249994721710602 0.0
1.5924355104710182 0.08249996589990845 0.0
1.6174354972599698 0.08249997971819839 0.0
1.6424354857138634 0.08249998970218642 0.0
1.667435475814051 0.08249999670850312 0.0
1.6924354674758086 0.08250000144109618 0.0
1.717435460575469 0.08250000447234472 0.0
1.7424354549699395 0.08250000626337674 0.0
1.7674354505102086 0.08250000718298096 0.0
1.7924354470500914 0.08250000752473431 0.0
1.8174354444511955 0.08250000752211359 0.0
1.8424354425847482 0.0825000073613965 0.0
1.8674354413307244 0.08250000719202022 0.0
1.8924354405744197 0.0825000071336677 0.0
1.917435440200634 0.08250000727843956 0.0
1.942435440086306 0.08250000768442117 0.0
1.9674354400969085 0.08250000835208568 0.0
1.9924354401135305 0.08250000917383701 0.0
0.0 0.0 0.0
0.025291719125241547 0.017087630334380845 0.0
0.05289983500433826 0.032841082027720576 0.0
0.07894423247054572 0.044025849539689695 0.0
0.10389716385905089 0.05238856689555348 0.0
0.12822035072629465 0.05865516637866532 0.0
0.15222061367164474 0.06337265260881701 0.0
0.17608497165939646 0.06690850380930018 0.0
0.19992708274493917 0.06953486399685237 0.0
0.2238149550944008 0.07145856864435411 0.0
0.2477874297945757 0.07284069414344586 0.0
0.27186434215779637 0.07380803924329356 0.0
0.2960530760921615 0.07446084297219505 0.0
0.3203529527472842 0.07487826302978189 0.0
0.34475824287432655 0.07512250961106191 0.0
0.3692602604581034 0.07524209529110078 0.0
0.3938488181914623 0.07527446295806084 0.0
0.41851322723971673 0.07524814503145852 0.0
0.44324296632461946 0.07518455005280802 0.0
0.468028109574776 0.07509944181799472 0.0
0.4928595791289351 0.07500415933931666 0.0
0.5177292720798949 0.07490661631709038 0.0
0.5426300993131781 0.07481211287308985 0.0
0.5675559646525142 0.07472398815108627 0.0
0.5925017056336901 0.07464413906734035 0.0
0.6174630116801417 0.07457342755105194 0.0
0.6424363311125122 0.07451199587404601 0.0
0.6674187750496383 0.07445950708312538 0.0
0.6924080236644228 0.07441532512558567 0.0
0.717402238294365 0.07437864702276437 0.0
0.7423999814482197 0.07434859742062157 0.0
0.7674001456929208 0.07432429404356042 0.0
0.7924018916613202 0.07430489100083584 0.0
0.8174045949194049 0.0742896055376899 0.0
0.8424078011126902 0.07427773267259295 0.0
0.8674111886279701 0.0742686511999424 0.0
0.8924145379209681 0.074261823744113 0.0
0.9174177066432778 0.0742567929048642 0.0
0.942420609730727 0.07425317501516653 0.0
0.9674232036729538 0.0742506526210739 0.0
0.9924254742579848 0.07424896647155076 0.0
1.0174274271669148 0.07424790755833675 0.0
1.04242908087619 0.07424730955812035 0.0
1.0674304614042285 0.07424704188962541 0.0
1.0924315985126536 0.0742470034966566 0.0
1.1174325230387834 0.07424711739630142 0.0
1.1424332650945732 0.0742473259825055 0.0
1.1674338529179555 0.07424758704354192 0.0
1.1924343122057905 0.07424787043299406 0.0
1.2174346657939352 0.07424815532429017 0.0
1.2424349335800406 0.07424842797576127 0.0
1.2674351326092668 0.07424867993459247 0.0
1.2924352772629781 0.07424890661226638 0.0
1.317435379506282 0.07424910617000344 0.0
1.3424354491627009 0.07424927865945288 0.0
1.367435494193915 0.07424942537083043 0.0
1.3924355209698438 0.07424954834750108 0.0
1.417435534519855 0.07424965003236864 0.0
1.4424355387599246 0.07424973301720475 0.0
1.4674355366934595 0.07424979987120285 0.0
1.4924355305855301 0.07424985302950342 0.0
1.5174355221115428 0.07424989472627579 0.0
1.5424355124822393 0.07424992696017121 0.0
1.5674355025473645 0.07424995148264549 0.0
1.5924354928805031 0.0742499698018666 0.0
1.6174354838476217 0.07424998319669385 0.0
1.642435475661717 0.0742499927366655 0.0
1.667435468425805 0.07424999930503574 0.0
1.6924354621662185 0.07425000362280623 0.0
1.7174354568579764 0.07425000627234964 0.0
1.7424354524437071 0.07425000771972885 0.0
1.7674354488473867 0.07425000833518985 0.0
1.7924354459839278 0.07425000841153939 0.0
1.8174354437654594 0.07425000818025256 0.0
1.8424354421049742 0.07425000782519013 0.0
1.8674354409179201 0.07425000749364667 0.0
1.8924354401223027 0.07425000730406324 0.0
1.9174354396380513 0.07425000734882593 0.0
1.9424354393867997 0.0742500076886338 0.0
1.9674354392923157 0.07425000833194247 0.0
1.992435439271343 0.07425000919029198 0.0
0.0 0.0 0.0
0.023203137539975716 0.012975844990883436 0.0
0.047938994198287774 0.025746408090859544 0.0
0.07348700038975041 0.03640991659154759 0.0
0.0987940349460494 0.04458677508087293 0.0
0.12375194034734117 0.05080912004772618 0.0
0.14843364545046533 0.055502897331303605 0.0
0.1729401325992968 0.05901561967737724 0.0
0.19735468962000718 0.061613784115734746 0.0
0.22173784454887516 0.06350518501268579 0.0
0.24613055845358134 0.06485291712495357 0.0
0.2705587959669948 0.06578573671624467 0.0
0.2950375586195473 0.06640537965359287 0.0
0.31957408240005974 0.06679201342999698 0.0
0.34417026941790646 0.06700843960514836 0.0
0.36882449877475215 0.06710343775503116 0.0
0.3935329538044271 0.06711448237338932 0.0
0.4182905786471096 0.06706997707005544 0.0
0.44309175333684364 0.06699110041470943 0.0
0.4679307568898159 0.06689332985085526 0.0
0.49280207230431544 0.06678769418974936 0.0
0.5177005751844197 0.0666817957456651 0.0
0.5426216381351865 0.06658063705841939 0.0
0.5675611755557144 0.06648728268911488 0.0
0.5925156475323858 0.06640338291533891 0.0
0.6174820368732628 0.0663295828938372 0.0
0.6424578096702369 0.06626583784299073 0.0
0.6674408669282618 0.06621165198182832 0.0
0.6924294926015029 0.06616625635291756 0.0
0.71742230169561 0.06612873827290189 0.0
0.7424181908284057 0.06609813301337782 0.0
0.7674162927019256 0.06607348642387975 0.0
0.7924159352564268 0.0660538955656516 0.0
0.8174166057941912 0.06603853301886677 0.0
0.8424179200311169 0.06602665934003646 0.0
0.8674195958196946 0.06601762715972119 0.0
0.892421431158207 0.06601087960061891 0.0
0.9174232860343897 0.06600594503965225 0.0
0.9424250676290061 0.06600242971259578 0.0
0.9674267184118991 0.06600000924537099 0.0
0.9924282066893848 0.06599841987367593 0.0
1.0174295191996516 0.06599744986550907 0.0
1.0424306553963065 0.06599693147500811 0.0
1.0674316231054832 0.06599673361856279 0.0
1.0924324352862433 0.06599675536504623 0.0
1.1174331076656279 0.0659969202626712 0.0
1.1424336570576707 0.0659971714784126 0.0
1.167434100209439 0.06599746769648702 0.0
1.1924344530466098 0.06599777970551676 0.0
1.2174347302163595 0.0659980875962261 0.0
1.2424349448466354 0.06599837849001204 0.0
1.2674351084586624 0.06599864472145829 0.0
1.2924352309840954 0.06599888240321952 0.0
1.3174353208500733 0.06599909030853231 0.0
1.342435385104906 0.06599926901412108 0.0
1.3674354295646003 0.06599942025382473 0.0
1.392435458966256 0.06599954644056505 0.0
1.417435477118876 0.06599965032101905 0.0
1.4424354870454432 0.06599973473344277 0.0
1.4674354911127125 0.06599980244445472 0.0
1.4924354911468785 0.065999856045244 0.0
1.5174354885346215 0.06599989789161412 0.0
1.542435484309869 0.0659999300756028 0.0
1.5674354792271348 0.06599995441916205 0.0
1.5924354738226554 0.06599997248264736 0.0
1.6174354684646608 0.06599998558265253 0.0
1.6424354633941907 0.06599999481519822 0.0
1.6674354587577784 0.06600000108139419 0.0
1.6924354546332792 0.06600000511359662 0.0
1.7174354510499767 0.0660000075007285 0.0
1.742435448003971 0.06600000871194152 0.0
1.7674354454697347 0.0660000091181508 0.0
1.7924354434085856 0.06600000901121722 0.0
1.817435441774725 0.0660000086206651 0.0
1.842435440519405 0.066000008127869 0.0
1.8674354395937238 0.06600000767750759 0.0
1.892435438950453 0.06600000738579585 0.0
1.9174354385450572 0.0660000073444625 0.0
1.9424354383349298 0.06600000761893855 0.0
1.9674354382722001 0.06600000824032114 0.0
1.9924354382769935 0.06600000919881012 0.0
0.0 0.0 0.0
0.022201646919984268 0.010339542465080774 0.0
0.045764586374446393 0.020611786083674394 0.0
0.07028516001345465 0.02976290874327815 0.0
0.09525591927107703 0.03727727359003706 0.0
0.12028628529965857 0.043167220443796325 0.0
0.14524901510956081 0.047685526285464935 0.0
0.17012268269842243 0.05109284642773923 0.0
0.19492491709654944 0.05362030713784147 0.0
0.21968201651493885 0.05545951824774481 0.0
0.24441809428605907 0.05676624808450129 0.0
0.2691518629143053 0.05766573710723218 0.0
0.2938964314939347 0.05825791485459094 0.0
0.31866013037436375 0.058621892084336845 0.0
0.3434475737360387 0.05881974161970433 0.0
0.3682606561748143 0.05889966054777265 0.0
0.39309938465233046 0.0588986148568369 0.0
0.4179625311351603 0.05884454894274675 0.0
0.44284812349865266 0.05875822574866263 0.0
0.467753802134003 0.058654751013699845 0.0
0.49267707015675694 0.05854482672990872 0.0
0.5176154619613582 0.0584357729866274 0.0
0.542566650679422 0.05833235283187045 0.0
0.5675285109836294 0.0582374309308355 0.0
0.5924991500569873 0.058152493306514154 0.0
0.6174769165306858 0.058078052162908046 0.0
0.6424603947607075 0.05801395668270351 0.0
0.6674483898913406 0.05795962777289483 0.0
0.6924399076582648 0.05791423203294287 0.0
0.7174341317348735 0.05787680776696264 0.0
0.7424304005532618 0.057846353670387596 0.0
0.7674281848775121 0.057821888897025615 0.0
0.7924270669241231 0.05780249154836296 0.0
0.8174267214741744 0.057787321209205406 0.0
0.842426899173513 0.05777562996252696 0.0
0.8674274120464797 0.05776676532876325 0.0
0.8924281211362171 0.057760167766478555 0.0
0.9174289261152118 0.057755364718216816 0.0
0.9424297566717379 0.05775196266442873 0.0
0.9674305654620359 0.05774963823841425 0.0
0.9924313224175332 0.057748129137179256 0.0
1.017432010205863 0.057747225320172964 0.0
1.0424326206600014 0.057746760805530956 0.0
1.0674331520086917 0.057746606239366234 0.0
1.0924336067614395 0.05774666231746874 0.0
1.1174339901213954 0.057746854071948656 0.0
1.142434308818427 0.0577471259909028 0.0
1.1674345702722189 0.057747437911480556 0.0
1.1924347820108565 0.05774776161130537 0.0
1.2174349512841198 0.05774807801657558 0.0
1.24243508482255 0.05774837494459226 0.0
1.267435188703391 0.057748645301914495 0.0
1.2924352682929188 0.057748885665265454 0.0
1.3174353282415865 0.05774909517957135 0.0
1.342435372514071 0.057749274715345016 0.0
1.3674354044408406 0.05774942623543721 0.0
1.3924354267814532 0.05774955232862356 0.0
1.4174354417926132 0.05774965587437495 0.0
1.442435451296204 0.05774973980930499 0.0
1.4674354567441361 0.05774980697121524 0.0
1.4924354592781057 0.05774986000132872 0.0
1.517435459783229 0.057749901289270815 0.0
1.5424354589351679 0.057749932948679444 0.0
1.5674354572408071 0.057749956814072655 0.0
1.5924354550727846 0.0577499744518444 0.0
1.6174354526984052 0.057749987180045086 0.0
1.6424354503035115 0.05774999609305331 0.0
1.6674354480119324 0.057750002088350495 0.0
1.6924354459011364 0.05775000589348597 0.0
1.717435444014651 0.05775000809197021 0.0
1.7424354423718031 0.05775000914731682 0.0
1.7674354409752537 0.057750009424811295 0.0
1.7924354398167748 0.0577500092108109 0.0
1.817435438881653 0.05775000872951121 0.0
1.842435438152043 0.05775000815717916 0.0
1.8674354376095117 0.05775000763380719 0.0
1.892435437236784 0.057750007272094464 0.0
1.9174354370181383 0.057750007163734844 0.0
1.9424354369365864 0.0577500073838528 0.0
1.9674354369637903 0.05775000799757925 0.0
1.9924354370374133 0.057750009080511644 0.0
0.0 0.0 0.0
0.021719180254961196 0.008311067203066886 0.0
0.04458799438643107 0.01656617396813694 0.0
0.06842795654456854 0.024150919348185976 0.0
0.09291562361504513 0.030649821941701468 0.0
0.11775242703962428 0.035937472783155296 0.0
0.1427346689221585 0.04008913629409956 0.0
0.16776047857755833 0.043266838618050536 0.0
0.19278583656388257 0.0456447932104434 0.0
0.21779607962013045 0.047383580700524584 0.0
0.24278958269353368 0.04862137738769472 0.0
0.26776965735214625 0.04947310251551018 0.0
0.2927407971279132 0.050032296972750634 0.0
0.31770712038963006 0.0503738900984245 0.0
0.34267185692066227 0.050557066436826496 0.0
0.3676372978487247 0.05062793844251545 0.0
0.3926049256225806 0.05062192082230607 0.0
0.4175755924426659 0.05056578389218487 0.0
0.4425496908151078 0.050479397331876084 0.0
0.46752729608539295 0.050377189999130066 0.0
0.49250827725947627 0.05026935679289036 0.0
0.5174923791510888 0.05016284465475149 0.0
0.5424792810217276 0.0500621487664432 0.0
0.5674686369759796 0.04996994786413707 0.0
0.5924601026922544 0.04988760489851319 0.0
0.617453352187702 0.04981555634757458 0.0
0.6424480874807533 0.049753610541523795 0.0
0.6674440433099992 0.04970117251746368 0.0
0.6924409885070252 0.04965741026963347 0.0
0.7174387251882202 0.04962137484724134 0.0
0.7424370866032813 0.04959208460047781 0.0
0.7674359342334518 0.04956858199156777 0.0
0.7924351545510591 0.0495499697644713 0.0
0.8174346557183709 0.04953543188826803 0.0
0.8424343644062878 0.049524243534263525 0.0
0.8674342228429599 0.04951577339163834 0.0
0.8924341861522782 0.04950948084639602 0.0
0.9174342200072111 0.049504909919291816 0.0
0.9424342985992634 0.04950168135756081 0.0
0.9674344029099545 0.04949948388177719 0.0
0.9924345192608924 0.04949806528438788 0.0
1.0174346381140955 0.04949722384407811 0.0
1.0424347530922682 0.04949680034600511 0.0
1.067434860188965 0.04949667087018464 0.0
1.0924349571400551 0.04949674041890485 0.0
1.1174350429302407 0.049496937390753074 0.0
1.1424351174111567 0.04949720886693156 0.0
1.1674351810104202 0.049497516649626046 0.0
1.1924352345139022 0.049497833977970876 0.0
1.2174352789061718 0.04949814284128279 0.0
1.242435315256529 0.04949843180910031 0.0
1.2674353446402598 0.04949869430121909 0.0
1.2924353680866636 0.04949892722687732 0.0
1.317435386547076 0.049499129929446856 0.0
1.3424354008774895 0.049499303380661094 0.0
1.3674354118315837 0.04949944957606925 0.0
1.3924354200608844 0.049499571090646295 0.0
1.4174354261196287 0.04949967076017779 0.0
1.442435430472462 0.049499751460000165 0.0
1.4674354335036572 0.04949981595793423 0.0
1.4924354355269 0.04949986682275193 0.0
1.5174354367949892 0.04949990637336427 0.0
1.542435437509032 0.04949993665711079 0.0
1.567435437826878 0.0494999594481731 0.0
1.592435437870675 0.0494999762593062 0.0
1.6174354377334763 0.04949998836178073 0.0
1.6424354374849477 0.04949999680983075 0.0
1.6674354371762055 0.049500002466956704 0.0
1.6924354368438748 0.049500006032274 0.0
1.717435436513468 0.049500008065707875 0.0
1.7424354362021888 0.04950000901131574 0.0
1.7674354359212563 0.0495000092183433 0.0
1.7924354356778884 0.049500008959844626 0.0
1.8174354354770115 0.04950000844886195 0.0
1.8424354353227586 0.04950000785224052 0.0
1.8674354352197189 0.04950000730225342 0.0
1.8924354351736274 0.04950000690638314 0.0
1.91743543519073 0.04950000675612233 0.0
1.9424354352743638 0.049500006936971555 0.0
1.967435435416918 0.04950000754451542 0.0
1.9924354355867857 0.04950000871545866 0.0
0.0 0.0 0.0
0.02144756999451708 0.00661243581274012 0.0
0.043911898880006364 0.013166371712793796 0.0
0.06728771795213538 0.01928371999335999 0.0
0.09137683862632366 0.024667736713533787 0.0
0.11595445329543104 0.02917387126991535 0.0
0.1408316656845895 0.03279718585391161 0.0
0.16587535085514135 0.03561857182941897 0.0
0.1910029313707651 0.03775546898308334 0.0
0.21616614433403458 0.03933071348902541 0.0
0.24133798379855115 0.040458029908991826 0.0
0.2665039424475514 0.04123623630203897 0.0
0.2916567045253088 0.04174799886021933 0.0
0.31679305141193886 0.042060677370277404 0.0
0.34191208714466653 0.04222804507096715 0.0
0.36701421975709947 0.04229226869727065 0.0
0.3921005689987188 0.04228585351667299 0.0
0.41717261481572526 0.04223341892180473 0.0
0.4422319840960302 0.04215325299466383 0.0
0.46728031933974 0.04205863663940312 0.0
0.49231919793947687 0.04195894884200323 0.0
0.5173500841284085 0.04186057424135892 0.0
0.5423743027933198 0.04176763773281843 0.0
0.5673930282293567 0.04168259110461334 0.0
0.5924072831151044 0.04160667529580196 0.0
0.6174179443288804 0.041540279639884034 0.0
0.6424257531196184 0.04148321691848676 0.0
0.6674313277887646 0.04143493047559011 0.0
0.6924351775294868 0.04139464719050411 0.0
0.7174377164530896 0.041361487859138305 0.0
0.7424392771343775 0.04133454452547344 0.0
0.7674401232429287 0.04131293254909637 0.0
0.7924404610070002 0.04129582368440303 0.0
0.8174404493904548 0.041282465167255075 0.0
0.842440208959213 0.04127218873481021 0.0
0.867439829479743 0.041264412620880694 0.0
0.8924393763346122 0.041258638848884754 0.0
0.9174388958648562 0.04125444756432938 0.0
0.9424384197604505 0.04125148968738156 0.0
0.9674379686224003 0.041249478803934016 0.0
0.9924375548158109 0.04124818293329944 0.0
1.017437184725137 0.04124741659711986 0.0
1.0424368605123147 0.0412470334541988 0.0
1.0674365814669406 0.04124691964874979 0.0
1.092436345025973 0.041246987935757685 0.0
1.117436147529138 0.041247172589193165 0.0
1.142435984765771 0.041247425060506465 0.0
1.1674358523593562 0.041247710331190963 0.0
1.192435746027657 0.04124800389029117 0.0
1.2174356617491138 0.0412482892624753 0.0
1.2424355958599735 0.04124855601228 0.0
1.267435545101444 0.0412487981535901 0.0
1.2924355066318438 0.04124901289897502 0.0
1.317435478015222 0.041249199690185936 0.0
1.3424354571950416 0.041249359458230175 0.0
1.3674354424592963 0.041249494068504505 0.0
1.3924354324016073 0.04124960591317275 0.0
1.4174354258815025 0.04124969761912667 0.0
1.442435421985984 0.041249771845387175 0.0
1.4674354199937438 0.041249831148627035 0.0
1.4924354193427651 0.04124987789966206 0.0
1.5174354196016553 0.04124991423729186 0.0