# vtk DataFile Version 2.0
mesh vtk view
ASCII
DATASET UNSTRUCTURED_GRID
POINTS 45 double
0.0 0.0 0.0
199.99959986309884 0.0005757651361872725 0.00023528398246982918
200.00017558777267 100.00056590346416 0.00020999950265710108
0.0 100.0 0.0
0.0 0.0 100.0
199.99982441222733 0.0005659034641675965 100.00020999950266
200.00040013690116 100.00057576513619 100.00023528398248
0.0 100.0 100.0
50.00009816769022 4.876511092087634e-05 8.456665473309159e-06
99.99977275163937 1.1877003578568636e-05 1.8814471694633138e-05
150.00034653480188 -0.00021356159496113128 -9.58904042797365e-05
200.00011240247088 49.99943691052283 -0.0002186004325610408
149.99984793409538 99.99979802619109 -6.61803163950669e-05
100.0000997213154 99.99999882930595 -1.4638704029614032e-05
49.99995692238548 100.00005848331021 3.337329351576629e-05
0.0 50.00000000025812 0.0
50.00004307774616 5.848331020094468e-05 100.00003337329352
99.99990027884819 -1.1706940351511256e-06 99.99998536129597
150.00015206598653 -0.00020197380891575386 99.9999338196836
199.99988759752912 49.99943691052283 99.99978139956744
149.99965346528003 99.99978643840504 99.99990410959572
100.00022724852421 100.00001187700359 100.0000188144717
49.99990183244142 100.00004876511092 100.00000845666547
0.0 50.00000000025812 100.0
0.0 0.0 50.0
200.00028819027855 -0.00056047272853055 49.99978037902921
199.99971180972145 99.99943952727148 49.99978037902921
0.0 100.0 50.0
49.99997331734981 49.99993840086081 -2.397508864589635e-05
100.0000632534218 50.00000509760665 2.5216865137829325e-06
149.99990279844093 50.00019862186973 7.653402756118644e-05
49.99993158758488 -6.147006752294604e-05 49.999975974511386
100.0001621757769 6.4653875760010255e-06 50.000001988196786
149.99975078317516 0.00019622667142132156 50.00007746824998
200.0 50.00055267252398 50.00021555819792
150.00024921690675 100.00019622667142 50.000077468249984
99.99983782438667 100.00000646538759 50.000001988196786
50.00006841254676 99.99993852993248 49.99997597451139
0.0 50.00000000025812 50.0
50.00002668278185 49.99993840086082 99.99997602491135
99.99993674674178 50.000005097606646 100.00000252168651
150.00009720164087 50.00019862186973 100.00007653402756
50.00000000006583 50.00006943485784 50.0000270815269
100.0000000000818 49.999983023310016 49.99999337858824
150.0000000000409 49.99981298598482 49.9999270591989

CELLS 16 144
8 0 8 28 15 24 31 42 38
8 24 31 42 38 4 16 39 23
8 15 28 14 3 38 42 37 27
8 38 42 37 27 23 39 22 7
8 8 9 29 28 31 32 43 42
8 31 32 43 42 16 17 40 39
8 28 29 13 14 42 43 36 37
8 42 43 36 37 39 40 21 22
8 9 10 30 29 32 33 44 43
8 32 33 44 43 17 18 41 40
8 29 30 12 13 43 44 35 36
8 43 44 35 36 40 41 20 21
8 10 1 11 30 33 25 34 44
8 33 25 34 44 18 5 19 41
8 30 11 2 12 44 34 26 35
8 44 34 26 35 41 19 6 20

CELL_TYPES 16
12
12
12
12
12
12
12
12
12
12
12
12
12
12
12
12

POINT_DATA 45
SCALARS MODE2_0.0849_Hz float 1
LOOKUP_TABLE default
0.0
8.628393957439664e-05
7.334034398594631e-05
0.0
0.0
7.334034398569789e-05
8.628393957467208e-05
0.0
1.2826167227018275e-05
2.6639040535926036e-05
4.878983859345764e-05
7.168025305509545e-05
3.048940005875272e-05
1.1759571735225399e-05
9.325882486284375e-06
0.0
9.325882486019074e-06
1.1759571734907372e-05
3.048940005859283e-05
7.168025305501584e-05
4.878983859409562e-05
2.663904053634242e-05
1.2826167227055744e-05
0.0
0.0
7.786280251822286e-05
7.78628025185172e-05
0.0
8.316332397321339e-06
7.409324567859287e-06
2.7300070408898234e-05
1.1090098701854555e-05
1.8936998664075196e-05
3.809396702902252e-05
6.920924405709452e-05
3.8093967029537436e-05
1.893699866449249e-05
1.1090098701955003e-05
0.0
8.3163323969956e-06
7.409324567917366e-06
2.7300070409147577e-05
8.695062506332384e-06
2.1259358575238833e-06
2.3419094024405443e-05

