# vtk DataFile Version 2.0
mesh vtk view
ASCII
DATASET UNSTRUCTURED_GRID
POINTS 45 double
0.0 0.0 0.0
199.997599178593 0.003454590817123636 0.0014117038948189755
200.00105352663607 100.003395420785 0.0012599970159426067
0.0 100.0 0.0
0.0 0.0 100.0
199.998946473364 0.0033954207850055798 100.00125999701594
200.00240082140706 100.00345459081711 100.00141170389482
0.0 100.0 100.0
50.00058900725947 0.00029259066552525813 5.073999283985497e-05
99.99863651159933 7.126202147141184e-05 0.00011288683016779886
150.00207921017812 -0.001281369569766788 -0.0005753424256784191
200.00067441482534 49.99662146401851 -0.001311602595366245
149.99908760279575 99.99878815714654 -0.00039708189837040154
100.00059832531136 99.99999297583575 -8.783222417768422e-05
49.99974153253652 100.00035089986123 0.0002002397610945978
0.0 50.00000000025812 0.0
50.00025846759512 0.0003508998612056682 100.00020023976111
99.99940167485224 -7.0241642109067555e-06 99.99991216777579
150.0009123972861 -0.0012118428534945234 99.99960291810166
199.99932558517466 49.99662146401851 99.99868839740463
149.99792078990376 99.99871863043023 99.9994246575743
100.00136348856427 100.00007126202148 100.0001128868302
49.99941099287216 100.00029259066551 100.00005073999282
0.0 50.00000000025812 100.0
0.0 0.0 50.0
200.00172914167132 -0.0033628363711833012 49.99868227417529
199.99827085832862 99.99663716362883 49.99868227417527
0.0 100.0 50.0
49.99983990376972 49.99963040441729 -0.00014385053187537813
100.00037952012185 50.00003058543541 1.51301190826976e-05
149.99941679044113 50.00119173155691 0.00045920416536711876
49.99958952662744 -0.00036882040513767635 49.999855847068325
100.00097305642447 3.8792325456006163e-05 50.00001192918074
149.99850470041795 0.0011773600285279297 50.00046480949986
200.0 50.00331603602544 50.00129334918755
150.00149529966401 100.0011773600285 50.00046480949988
99.99902694373907 100.00003879232547 50.0000119291807
50.00041047350421 99.99963117959486 49.999855847068346
0.0 50.00000000025812 50.0
50.00016009636195 49.99963040441731 99.99985614946813
99.99962048004174 50.00003058543538 100.00001513011908
150.00058320964067 50.00119173155692 100.00045920416537
50.00000000006583 50.000416608399476 50.000162489161404
100.0000000000818 49.9998981396556 49.99996027152945
150.0000000000409 49.998877916247444 49.99956235519341

CELLS 16 144
8 0 8 28 15 24 31 42 38
8 24 31 42 38 4 16 39 23
8 15 28 14 3 38 42 37 27
8 38 42 37 27 23 39 22 7
8 8 9 29 28 31 32 43 42
8 31 32 43 42 16 17 40 39
8 28 29 13 14 42 43 36 37
8 42 43 36 37 39 40 21 22
8 9 10 30 29 32 33 44 43
8 32 33 44 43 17 18 41 40
8 29 30 12 13 43 44 35 36
8 43 44 35 36 40 41 20 21
8 10 1 11 30 33 25 34 44
8 33 25 34 44 18 5 19 41
8 30 11 2 12 44 34 26 35
8 44 34 26 35 41 19 6 20

CELL_TYPES 16
12
12
12
12
12
12
12
12
12
12
12
12
12
12
12
12

POINT_DATA 45
SCALARS MODE2_0.0849_Hz float 1
LOOKUP_TABLE default
0.0
8.628393957439664e-05
7.334034398594631e-05
0.0
0.0
7.334034398569789e-05
8.628393957467208e-05
0.0
1.2826167227018275e-05
2.6639040535926036e-05
4.878983859345764e-05
7.168025305509545e-05
3.048940005875272e-05
1.1759571735225399e-05
9.325882486284375e-06
0.0
9.325882486019074e-06
1.1759571734907372e-05
3.048940005859283e-05
7.168025305501584e-05
4.878983859409562e-05
2.663904053634242e-05
1.2826167227055744e-05
0.0
0.0
7.786280251822286e-05
7.78628025185172e-05
0.0
8.316332397321339e-06
7.409324567859287e-06
2.7300070408898234e-05
1.1090098701854555e-05
1.8936998664075196e-05
3.809396702902252e-05
6.920924405709452e-05
3.8093967029537436e-05
1.893699866449249e-05
1.1090098701955003e-05
0.0
8.3163323969956e-06
7.409324567917366e-06
2.7300070409147577e-05
8.695062506332384e-06
2.1259358575238833e-06
2.3419094024405443e-05

