# vtk DataFile Version 2.0
mesh vtk view
ASCII
DATASET UNSTRUCTURED_GRID
POINTS 45 double
0.0 0.0 0.0
200.00049401896428 -0.0009407677383484934 -0.0009407677383421252
199.99950598103572 99.99905923226166 0.000940767738352964
0.0 100.0 0.0
0.0 0.0 100.0
199.99950598103572 0.0009407677383484927 99.99905923226166
200.00049401896428 100.00094076773834 100.00094076773836
0.0 100.0 100.0
49.99990611617963 -0.00010096443895386253 -0.00010096443895433554
100.00025404555471 2.300381487526061e-05 2.300381487800983e-05
149.99958086768243 0.00031501937221606216 0.0003150193722115895
200.0 50.000931653768895 -1.9991138695262405e-15
150.0004191323995 100.00031501937221 -0.0003150193722168642
99.99974595460885 100.00002300381487 -2.3003814876777485e-05
50.00009388395201 99.99989903556104 0.00010096443895539382
0.0 50.00000000025812 0.0
50.00009388337311 0.000100964438953863 99.99989903556104
99.99974595374003 -2.300381487525947e-05 100.00002300381487
150.0004191317708 -0.0003150193722160636 100.00031501937221
200.0 49.99906834587849 100.0
149.9995808683111 99.99968498062779 99.99968498062778
100.00025404642354 99.99997699618513 99.99997699618513
49.99990611675853 100.00010096443896 100.00010096443896
0.0 50.00000000025812 100.0
0.0 0.0 50.0
200.0 -1.1773571230907196e-18 50.0009316539452
200.0 100.0 49.99906834605479
0.0 100.0 50.0
50.00000000006583 50.000109510100145 3.217931855031803e-16
100.0000000000818 49.99996495056236 -1.9660745725897964e-15
150.0000000000409 49.999695796341136 2.4859954643826365e-15
49.99999999977637 1.4407488876119203e-18 50.000109509950626
99.99999999964737 -3.709628225424801e-19 49.99996495052146
149.9999999997266 1.3411402501995363e-19 49.999695796408844
200.0 49.99999999982369 50.0
150.0000000003553 100.0 50.000304203591156
100.0000000005162 100.0 50.00003504947854
50.00000000035527 100.0 49.999890490049374
0.0 50.00000000025812 50.0
50.00000000006583 49.999890490198894 100.0
100.0000000000818 50.00003504951944 100.0
150.0000000000409 50.00030420352345 100.0
50.00000000006583 50.00000000014952 50.0
100.0000000000818 50.0000000000409 50.0
150.0000000000409 49.99999999993229 50.0

CELLS 16 144
8 0 8 28 15 24 31 42 38
8 24 31 42 38 4 16 39 23
8 15 28 14 3 38 42 37 27
8 38 42 37 27 23 39 22 7
8 8 9 29 28 31 32 43 42
8 31 32 43 42 16 17 40 39
8 28 29 13 14 42 43 36 37
8 42 43 36 37 39 40 21 22
8 9 10 30 29 32 33 44 43
8 32 33 44 43 17 18 41 40
8 29 30 12 13 43 44 35 36
8 43 44 35 36 40 41 20 21
8 10 1 11 30 33 25 34 44
8 33 25 34 44 18 5 19 41
8 30 11 2 12 44 34 26 35
8 44 34 26 35 41 19 6 20

CELL_TYPES 16
12
12
12
12
12
12
12
12
12
12
12
12
12
12
12
12

POINT_DATA 45
SCALARS MODE4_0.0896_Hz float 1
LOOKUP_TABLE default
0.0
8.278695381300815e-05
8.278695381361732e-05
0.0
0.0
8.278695381300802e-05
8.278695381361722e-05
0.0
9.968305727002044e-06
1.4940358344712206e-05
3.5681030917954895e-05
5.434648013690531e-05
3.5681030918401275e-05
1.494035834501519e-05
9.968305727165743e-06
0.0
9.968305727002071e-06
1.4940358344712054e-05
3.568103091795484e-05
5.4346480136905153e-05
3.568103091840134e-05
1.4940358345015181e-05
9.96830572716577e-06
0.0
0.0
5.43464801365817e-05
5.434648013722872e-05
0.0
6.388080453002116e-06
2.0445529150169634e-06
1.7745209484131224e-05
6.388080452974271e-06
2.044552915060411e-06
1.7745209483971253e-05
1.3410427081180337e-16
1.774520948429111e-05
2.0445529149734894e-06
6.388080453029973e-06
0.0
6.388080453002095e-06
2.0445529150168833e-06
1.7745209484131302e-05
2.525951321614468e-17
1.308546731420574e-16
1.6196185387846677e-16

