# vtk DataFile Version 2.0
mesh vtk view
ASCII
DATASET UNSTRUCTURED_GRID
POINTS 45 double
0.0 0.0 0.0
200.00105352663607 0.0012599970159346372 -0.0033954207849911646
200.00240082140704 100.00141170389482 -0.0034545908171264945
0.0 100.0 0.0
0.0 0.0 100.0
199.99759917859296 0.001411703894827548 99.99654540918289
199.998946473364 100.00125999701594 99.99660457921499
0.0 100.0 100.0
49.999741531957625 0.00020023976107780763 -0.0003508998612528129
100.00059832444252 -8.78322241583149e-05 7.024164274183356e-06
149.99908760216707 -0.0003970818983794446 0.0012118428534484806
199.99827085832865 49.99868227399898 0.0033628363711767036
149.99792078990376 99.9994246575743 0.0012813695697963983
100.00136348856425 100.00011288683021 -7.126202151642406e-05
49.99941099287216 100.0000507399928 -0.0002925906654870616
0.0 50.00000000025812 0.0
50.00058900725947 5.073999285424298e-05 99.99970740933445
99.99863651159932 0.00011288683015265708 99.99992873797856
150.00207921017815 -0.0005753424256728096 100.00128136956974
200.00172914167135 49.998682273998966 100.00336283637118
150.00091239791482 99.99960291810166 100.00121184285351
99.99940167572105 99.99991216777576 100.00000702416419
50.000258468174025 100.00020023976114 99.99964910013881
0.0 50.00000000025812 100.0
0.0 0.0 50.0
200.00067441482534 -0.001311602595365231 50.003378535805176
199.99932558517466 99.99868839740463 50.0033785358052
0.0 100.0 50.0
50.000410473214764 49.99985584721789 0.0003688204051423137
99.99902694330468 50.000011929221586 -3.879232546572099e-05
150.00149529934959 50.00046480943218 -0.0011773600285188732
49.99983990348026 -0.00014385053187469647 50.00036959573225
100.00037951968743 1.5130119081745801e-05 49.99996941460546
149.99941679012684 0.000459204165367427 49.998808268375406
200.0 50.00129334901124 49.996683963798255
150.00058320995507 100.00045920416537 49.99880826837534
99.99962048047614 100.0000151301191 49.999969414605545
50.00016009665139 99.99985614946812 50.00036959573219
0.0 50.00000000025812 50.0
49.9995895269169 49.99985584721783 100.00036882040514
100.00097305685891 50.00001192922165 99.99996120767453
149.9985047007322 50.000464809432145 99.99882263997148
50.00000000006583 50.000162489310924 49.99958339175004
100.0000000000818 49.99996027157035 50.0001018603853
150.0000000000409 49.999562355125704 50.00112208368485

CELLS 16 144
8 0 8 28 15 24 31 42 38
8 24 31 42 38 4 16 39 23
8 15 28 14 3 38 42 37 27
8 38 42 37 27 23 39 22 7
8 8 9 29 28 31 32 43 42
8 31 32 43 42 16 17 40 39
8 28 29 13 14 42 43 36 37
8 42 43 36 37 39 40 21 22
8 9 10 30 29 32 33 44 43
8 32 33 44 43 17 18 41 40
8 29 30 12 13 43 44 35 36
8 43 44 35 36 40 41 20 21
8 10 1 11 30 33 25 34 44
8 33 25 34 44 18 5 19 41
8 30 11 2 12 44 34 26 35
8 44 34 26 35 41 19 6 20

CELL_TYPES 16
12
12
12
12
12
12
12
12
12
12
12
12
12
12
12
12

POINT_DATA 45
SCALARS MODE1_0.0849_Hz float 1
LOOKUP_TABLE default
0.0
7.334034398570556e-05
8.628393957466434e-05
0.0
0.0
8.628393957440342e-05
7.334034398593693e-05
0.0
9.325882486335333e-06
1.1759571735077363e-05
3.048940005846581e-05
7.786280251833326e-05
4.878983859417421e-05
2.663904053626758e-05
1.2826167226826696e-05
0.0
1.282616722724786e-05
2.6639040536000738e-05
4.878983859337792e-05
7.786280251840651e-05
3.048940005887753e-05
1.1759571735055399e-05
9.325882485969284e-06
0.0
0.0
7.168025305484889e-05
7.168025305526055e-05
0.0
1.1090098701783148e-05
1.8936998664295404e-05
3.809396702936924e-05
8.316332397673603e-06
7.4093245678705265e-06
2.730007040847388e-05
6.920924405709397e-05
2.7300070409569176e-05
7.409324567906248e-06
8.316332396644766e-06
0.0
1.1090098702027394e-05
1.8936998664272724e-05
3.809396702919e-05
8.695062506333245e-06
2.1259358575250717e-06
2.3419094024404243e-05

