# vtk DataFile Version 2.0
mesh vtk view
ASCII
DATASET UNSTRUCTURED_GRID
POINTS 45 double
0.0 0.0 0.0
199.99839945239532 0.00230306054474909 0.0009411359298793167
200.00070235109072 100.00226361385667 0.0008399980106284043
0.0 100.0 0.0
0.0 0.0 100.0
199.99929764890933 0.002263613856670386 100.00083999801062
200.0016005476047 100.00230306054473 100.00094113592988
0.0 100.0 100.0
50.000392671431776 0.00019506044368350535 3.3826661893236635e-05
99.99909100761533 4.7508014314274544e-05 7.525788677853255e-05
150.00138614002762 -0.0008542463798445251 -0.000383561617118946
200.00044960988356 49.99774764262023 -0.0008744017302441632
149.9993917353156 99.99919210476436 -0.0002647212655802676
100.00039888371296 99.99999531722383 -5.855481611845613e-05
49.9998276884761 100.00023393324082 0.00013349317406306517
0.0 50.00000000025812 0.0
50.00017231165553 0.00023393324080377872 100.00013349317408
99.99960111645062 -4.6827761406045026e-06 99.99994144518386
150.00060826476627 -0.0008078952356630155 99.99973527873443
199.99955039011644 49.99774764262024 99.99912559826976
149.99861386005426 99.99914575362016 99.99961643838287
100.00090899254823 100.00004750801432 100.00007525788679
49.99960732869986 100.00019506044367 100.00003382666188
0.0 50.00000000025812 100.0
0.0 0.0 50.0
200.0011527611142 -0.0022418909141222 49.99912151611686
199.99884723888576 99.99775810908588 49.99912151611685
0.0 100.0 50.0
49.999893269201756 49.9997536029947 -9.59003545835854e-05
100.00025301344184 50.00002039030391 1.008674605513173e-05
149.99961119364104 50.000794487682036 0.00030613611024474577
49.999726351010416 -0.00024588027009178414 49.99990389804555
100.00064870416544 2.5861550304004102e-05 50.00000795278716
149.99900313352083 0.0007849066856852863 50.00030987299991
200.0 50.00221069062486 50.0008622327917
150.0009968665611 100.00078490668568 50.00030987299992
99.99935129599811 100.00002586155031 50.000007952787136
50.00027364912123 99.9997541197299 49.99990389804557
0.0 50.00000000025812 50.0
50.00010673092991 49.999753602994716 99.99990409964542
99.99974698672176 50.00002039030389 100.00001008674606
150.00038880644075 50.00079448768205 100.00030613611024
50.00000000006583 50.000277738982824 50.0001083261076
100.0000000000818 49.999932093117366 49.999973514352966
150.0000000000409 49.999251944142394 49.999708236795605

CELLS 16 144
8 0 8 28 15 24 31 42 38
8 24 31 42 38 4 16 39 23
8 15 28 14 3 38 42 37 27
8 38 42 37 27 23 39 22 7
8 8 9 29 28 31 32 43 42
8 31 32 43 42 16 17 40 39
8 28 29 13 14 42 43 36 37
8 42 43 36 37 39 40 21 22
8 9 10 30 29 32 33 44 43
8 32 33 44 43 17 18 41 40
8 29 30 12 13 43 44 35 36
8 43 44 35 36 40 41 20 21
8 10 1 11 30 33 25 34 44
8 33 25 34 44 18 5 19 41
8 30 11 2 12 44 34 26 35
8 44 34 26 35 41 19 6 20

CELL_TYPES 16
12
12
12
12
12
12
12
12
12
12
12
12
12
12
12
12

POINT_DATA 45
SCALARS MODE2_0.0849_Hz float 1
LOOKUP_TABLE default
0.0
8.628393957439664e-05
7.334034398594631e-05
0.0
0.0
7.334034398569789e-05
8.628393957467208e-05
0.0
1.2826167227018275e-05
2.6639040535926036e-05
4.878983859345764e-05
7.168025305509545e-05
3.048940005875272e-05
1.1759571735225399e-05
9.325882486284375e-06
0.0
9.325882486019074e-06
1.1759571734907372e-05
3.048940005859283e-05
7.168025305501584e-05
4.878983859409562e-05
2.663904053634242e-05
1.2826167227055744e-05
0.0
0.0
7.786280251822286e-05
7.78628025185172e-05
0.0
8.316332397321339e-06
7.409324567859287e-06
2.7300070408898234e-05
1.1090098701854555e-05
1.8936998664075196e-05
3.809396702902252e-05
6.920924405709452e-05
3.8093967029537436e-05
1.893699866449249e-05
1.1090098701955003e-05
0.0
8.3163323969956e-06
7.409324567917366e-06
2.7300070409147577e-05
8.695062506332384e-06
2.1259358575238833e-06
2.3419094024405443e-05

