# vtk DataFile Version 2.0
mesh vtk view
ASCII
DATASET UNSTRUCTURED_GRID
POINTS 45 double
0.0 0.0 0.0
200.0007023510907 0.0008399980106230913 -0.002263613856660776
200.00160054760468 100.00094113592988 -0.0023030605447509956
0.0 100.0 0.0
0.0 0.0 100.0
199.99839945239532 0.0009411359298850317 99.99769693945527
199.9992976489093 100.00083999801062 99.99773638614333
0.0 100.0 100.0
49.99982768789721 0.00013349317405187173 -0.00023393324083520852
100.00039888284414 -5.855481610554325e-05 4.6827761827889024e-06
149.99939173468692 -0.0002647212655862963 0.0008078952356323203
199.99884723888576 49.99912151594055 0.0022418909141178017
149.9986138600543 99.99961643838286 0.0008542463798642653
100.00090899254823 100.0000752578868 -4.7508014344282686e-05
49.99960732869986 100.00003382666186 -0.00019506044365804102
0.0 50.00000000025812 0.0
50.000392671431776 3.3826661902828647e-05 99.9998049395563
99.99909100761533 7.525788676843803e-05 99.99995249198571
150.00138614002762 -0.0003835616171152063 100.00085424637983
200.00115276111424 49.999121515940544 100.00224189091412
150.00060826539496 99.99973527873445 100.00080789523567
99.99960111731943 99.99994144518385 100.00000468277612
50.00017231223444 100.00013349317409 99.99976606675921
0.0 50.00000000025812 100.0
0.0 0.0 50.0
200.00044960988356 -0.000874401730243487 50.002252357203446
199.99955039011644 99.99912559826976 50.00225235720346
0.0 100.0 50.0
50.00027364883179 49.99990389819509 0.00024588027009487574
99.99935129556373 50.00000795282802 -2.586155031048065e-05
150.00099686624668 50.00030987293222 -0.0007849066856792486
49.999893268912295 -9.590035458313095e-05 50.00024639715483
100.00025301300741 1.0086746054497197e-05 49.999979609736975
149.99961119332679 0.00030613611024495123 49.99920551225027
200.0 50.00086223261539 49.997789309198836
150.00038880675515 100.00030613611024 49.99920551225023
99.99974698715616 100.00001008674606 49.99997960973703
50.00010673121935 99.99990409964542 50.00024639715479
0.0 50.00000000025812 50.0
49.99972635129988 49.99990389819506 100.0002458802701
100.00064870459987 50.00000795282807 99.99997413844969
149.99900313383512 50.00030987293219 99.99921509331432
50.00000000006583 50.00010832625712 49.999722261166696
100.0000000000818 49.999973514393865 50.00006790692353
150.0000000000409 49.9997082367279 50.0007480557899

CELLS 16 144
8 0 8 28 15 24 31 42 38
8 24 31 42 38 4 16 39 23
8 15 28 14 3 38 42 37 27
8 38 42 37 27 23 39 22 7
8 8 9 29 28 31 32 43 42
8 31 32 43 42 16 17 40 39
8 28 29 13 14 42 43 36 37
8 42 43 36 37 39 40 21 22
8 9 10 30 29 32 33 44 43
8 32 33 44 43 17 18 41 40
8 29 30 12 13 43 44 35 36
8 43 44 35 36 40 41 20 21
8 10 1 11 30 33 25 34 44
8 33 25 34 44 18 5 19 41
8 30 11 2 12 44 34 26 35
8 44 34 26 35 41 19 6 20

CELL_TYPES 16
12
12
12
12
12
12
12
12
12
12
12
12
12
12
12
12

POINT_DATA 45
SCALARS MODE1_0.0849_Hz float 1
LOOKUP_TABLE default
0.0
7.334034398570556e-05
8.628393957466434e-05
0.0
0.0
8.628393957440342e-05
7.334034398593693e-05
0.0
9.325882486335333e-06
1.1759571735077363e-05
3.048940005846581e-05
7.786280251833326e-05
4.878983859417421e-05
2.663904053626758e-05
1.2826167226826696e-05
0.0
1.282616722724786e-05
2.6639040536000738e-05
4.878983859337792e-05
7.786280251840651e-05
3.048940005887753e-05
1.1759571735055399e-05
9.325882485969284e-06
0.0
0.0
7.168025305484889e-05
7.168025305526055e-05
0.0
1.1090098701783148e-05
1.8936998664295404e-05
3.809396702936924e-05
8.316332397673603e-06
7.4093245678705265e-06
2.730007040847388e-05
6.920924405709397e-05
2.7300070409569176e-05
7.409324567906248e-06
8.316332396644766e-06
0.0
1.1090098702027394e-05
1.8936998664272724e-05
3.809396702919e-05
8.695062506333245e-06
2.1259358575250717e-06
2.3419094024404243e-05

