# vtk DataFile Version 2.0
mesh vtk view
ASCII
DATASET UNSTRUCTURED_GRID
POINTS 45 double
0.0 0.0 0.0
200.00200068450584 -0.0028788256809363635 -0.0011764199123491463
199.9991220611366 99.99717048267917 -0.0010499975132855057
0.0 100.0 0.0
0.0 0.0 100.0
200.00087793886334 -0.0028295173208379835 99.99895000248672
199.99799931549413 99.99712117431908 99.99882358008765
0.0 100.0 100.0
49.99950916020712 -0.00024382555460438177 -4.2283327366545806e-05
100.00113623968741 -5.938501789284321e-05 -9.407235847316573e-05
149.99826732435034 0.0010678079748056568 0.00047945202139868263
199.99943798764556 50.002815446328015 0.0010930021628052045
150.00076033165493 100.00100986904455 0.00033090158197533466
99.99950139652023 100.00000585347021 7.31935201480702e-05
50.00021539020423 99.99970758344897 -0.0001668664675788315
0.0 50.00000000025812 0.0
49.99978460992742 -0.0002924165510047235 99.9998331335324
100.00049860364332 5.85347017575563e-06 100.00007319352018
149.99923966842704 0.0010098690445787695 100.00033090158195
200.00056201235444 50.002815446328015 100.0010930021628
150.0017326757316 100.0010678079748 100.00047945202142
99.99886376047614 99.9999406149821 99.9999059276415
50.00049083992453 99.99975617444541 99.99995771667265
0.0 50.00000000025812 100.0
0.0 0.0 50.0
199.99855904860723 0.0028023636426527513 50.00109810485393
200.00144095139282 100.00280236364264 50.00109810485394
0.0 100.0 50.0
50.000133413645926 50.000307996593044 0.00011987544322948178
99.99968373338176 49.99997451221214 -1.2608432568914667e-05
150.0004860080407 49.99900689024511 -0.0003826701378059323
50.000342060733814 0.0003073503376147303 50.00012012744306
99.9991891189998 -3.232693788000514e-05 49.999990059016056
150.00124608248385 -0.0009811333571066083 49.99961265875012
200.0 49.99723663632224 49.998922209010374
149.99875391759804 99.99901886664291 49.999612658750095
100.0008108811638 99.9999676730621 49.99999005901608
49.99965793939782 100.00030735033762 50.00012012744304
0.0 50.00000000025812 50.0
49.99986658648573 50.00030799659302 100.00011987544323
100.00031626678185 49.99997451221216 99.99998739156743
149.9995139920411 49.9990068902451 99.9996173298622
50.00000000006583 49.99965282660789 49.9998645923655
100.0000000000818 50.000084883695315 50.00003310705879
150.0000000000409 50.000935069669666 50.00036470400549

CELLS 16 144
8 0 8 28 15 24 31 42 38
8 24 31 42 38 4 16 39 23
8 15 28 14 3 38 42 37 27
8 38 42 37 27 23 39 22 7
8 8 9 29 28 31 32 43 42
8 31 32 43 42 16 17 40 39
8 28 29 13 14 42 43 36 37
8 42 43 36 37 39 40 21 22
8 9 10 30 29 32 33 44 43
8 32 33 44 43 17 18 41 40
8 29 30 12 13 43 44 35 36
8 43 44 35 36 40 41 20 21
8 10 1 11 30 33 25 34 44
8 33 25 34 44 18 5 19 41
8 30 11 2 12 44 34 26 35
8 44 34 26 35 41 19 6 20

CELL_TYPES 16
12
12
12
12
12
12
12
12
12
12
12
12
12
12
12
12

POINT_DATA 45
SCALARS MODE2_0.0849_Hz float 1
LOOKUP_TABLE default
0.0
8.628393957439664e-05
7.334034398594631e-05
0.0
0.0
7.334034398569789e-05
8.628393957467208e-05
0.0
1.2826167227018275e-05
2.6639040535926036e-05
4.878983859345764e-05
7.168025305509545e-05
3.048940005875272e-05
1.1759571735225399e-05
9.325882486284375e-06
0.0
9.325882486019074e-06
1.1759571734907372e-05
3.048940005859283e-05
7.168025305501584e-05
4.878983859409562e-05
2.663904053634242e-05
1.2826167227055744e-05
0.0
0.0
7.786280251822286e-05
7.78628025185172e-05
0.0
8.316332397321339e-06
7.409324567859287e-06
2.7300070408898234e-05
1.1090098701854555e-05
1.8936998664075196e-05
3.809396702902252e-05
6.920924405709452e-05
3.8093967029537436e-05
1.893699866449249e-05
1.1090098701955003e-05
0.0
8.3163323969956e-06
7.409324567917366e-06
2.7300070409147577e-05
8.695062506332384e-06
2.1259358575238833e-06
2.3419094024405443e-05

