# vtk DataFile Version 2.0
mesh vtk view
ASCII
DATASET UNSTRUCTURED_GRID
POINTS 45 double
0.0 0.0 0.0
199.9971990416918 0.004030355953310909 0.0016469878772888047
200.00122911440874 100.00396132424916 0.0014699965185997078
0.0 100.0 0.0
0.0 0.0 100.0
199.9987708855913 0.0039613242491731765 100.00146999651858
200.00280095830823 100.00403035595329 100.0016469878773
0.0 100.0 100.0
50.000687175173326 0.00034135577644613444 5.919665831316413e-05
99.99840926359131 8.313902504998047e-05 0.00013170130186243201
150.0024257452534 -0.0014949311647279194 -0.0006712328299581556
200.00078681729622 49.99605837471764 -0.0015302030279272859
149.99893553653584 99.99858618333762 -0.00046326221476546847
100.00069804611054 99.9999918051417 -0.00010247092820729825
49.999698454566726 100.00040938317144 0.00023361305461036408
0.0 50.00000000025812 0.0
50.00030154556491 0.00040938317140661284 100.00023361305465
99.99930195405304 -8.19485824605788e-06 99.99989752907175
150.00106446354602 -0.0014138166624102773 99.99953673778526
199.99921318270378 49.99605837471765 99.99846979697207
149.9975742548285 99.99850506883527 99.99932876717001
100.00159073657227 100.00008313902507 100.0001317013019
49.9993128249583 100.00034135577643 100.00005919665828
0.0 50.00000000025812 100.0
0.0 0.0 50.0
200.0020173319499 -0.003923309099713852 49.9984626532045
199.99798266805004 99.9960766909003 49.99846265320449
0.0 100.0 50.0
49.9998132210537 49.99956880512859 -0.00016782562052127447
100.00044277346186 50.000035683001165 1.7651805596480533e-05
149.99931958884116 50.001390353494344 0.0005357381929283052
49.99952111443595 -0.0004302904726606224 49.99983182157971
100.00113523255399 4.525771303200719e-05 50.00001391737752
149.9982554838665 0.0013735866999492513 50.00054227774984
200.0 50.003868708725726 50.00150890738548
150.00174451621547 100.00137358669993 50.000542277749865
99.99886476760955 100.00004525771305 50.00001391737749
50.0004788856957 99.99956970952734 49.99983182157974
0.0 50.00000000025812 50.0
50.00018677907797 49.99956880512861 99.99983217437948
99.99955722670173 50.00003568300113 100.0000176518056
150.00068041124064 50.001390353494365 100.00053573819292
50.00000000006583 50.0004860431078 50.000189570688306
100.0000000000818 49.999881162924716 49.999953650117696
150.0000000000409 49.99869090229997 49.999489414392315

CELLS 16 144
8 0 8 28 15 24 31 42 38
8 24 31 42 38 4 16 39 23
8 15 28 14 3 38 42 37 27
8 38 42 37 27 23 39 22 7
8 8 9 29 28 31 32 43 42
8 31 32 43 42 16 17 40 39
8 28 29 13 14 42 43 36 37
8 42 43 36 37 39 40 21 22
8 9 10 30 29 32 33 44 43
8 32 33 44 43 17 18 41 40
8 29 30 12 13 43 44 35 36
8 43 44 35 36 40 41 20 21
8 10 1 11 30 33 25 34 44
8 33 25 34 44 18 5 19 41
8 30 11 2 12 44 34 26 35
8 44 34 26 35 41 19 6 20

CELL_TYPES 16
12
12
12
12
12
12
12
12
12
12
12
12
12
12
12
12

POINT_DATA 45
SCALARS MODE2_0.0849_Hz float 1
LOOKUP_TABLE default
0.0
8.628393957439664e-05
7.334034398594631e-05
0.0
0.0
7.334034398569789e-05
8.628393957467208e-05
0.0
1.2826167227018275e-05
2.6639040535926036e-05
4.878983859345764e-05
7.168025305509545e-05
3.048940005875272e-05
1.1759571735225399e-05
9.325882486284375e-06
0.0
9.325882486019074e-06
1.1759571734907372e-05
3.048940005859283e-05
7.168025305501584e-05
4.878983859409562e-05
2.663904053634242e-05
1.2826167227055744e-05
0.0
0.0
7.786280251822286e-05
7.78628025185172e-05
0.0
8.316332397321339e-06
7.409324567859287e-06
2.7300070408898234e-05
1.1090098701854555e-05
1.8936998664075196e-05
3.809396702902252e-05
6.920924405709452e-05
3.8093967029537436e-05
1.893699866449249e-05
1.1090098701955003e-05
0.0
8.3163323969956e-06
7.409324567917366e-06
2.7300070409147577e-05
8.695062506332384e-06
2.1259358575238833e-06
2.3419094024405443e-05

