# vtk DataFile Version 2.0
mesh vtk view
ASCII
DATASET UNSTRUCTURED_GRID
POINTS 45 double
0.0 0.0 0.0
200.00017558777267 0.00020999950265577282 -0.000565903464165194
200.00040013690116 100.00023528398246 -0.0005757651361877489
0.0 100.0 0.0
0.0 0.0 100.0
199.99959986309884 0.00023528398247125792 99.99942423486381
199.99982441222733 100.00020999950266 99.99943409653584
0.0 100.0 100.0
49.99995692180658 3.337329351296793e-05 -5.848331020880213e-05
100.00009972044657 -1.4638704026385812e-05 1.1706940456972256e-06
149.9998479334667 -6.618031639657408e-05 0.00020197380890808007
199.99971180972145 49.999780378852904 0.0005604727285294504
149.99965346528003 99.99990410959572 0.00021356159496606632
100.00022724852421 100.0000188144717 -1.1877003586070671e-05
49.99990183244142 100.00000845666547 -4.8765110914510254e-05
0.0 50.00000000025812 0.0
50.00009816769022 8.456665475707162e-06 99.99995123488908
99.99977275163937 1.8814471692109508e-05 99.99998812299643
150.00034653480188 -9.589040427880158e-05 100.00021356159496
200.00028819027855 49.999780378852904 100.00056047272852
150.00015206661521 99.9999338196836 100.00020197380891
99.99990027971701 99.99998536129596 100.00000117069403
50.000043078325064 100.00003337329352 99.9999415166898
0.0 50.00000000025812 100.0
0.0 0.0 50.0
200.00011240247088 -0.00021860043256087175 50.00056308930086
199.9998875975291 99.99978139956744 50.00056308930087
0.0 100.0 50.0
50.00006841225732 49.99997597466091 6.147006752371894e-05
99.99983782395228 50.00000198823768 -6.465387577620163e-06
150.00024921659235 50.000077468182276 -0.00019622667141981214
49.99997331706035 -2.3975088645782738e-05 50.000061599288706
100.00006325298737 2.5216865136242993e-06 49.999994902434246
149.99990279812664 7.653402756123781e-05 49.999801378062564
200.0 50.000215558021615 49.99944732729971
150.00009720195527 100.00007653402756 49.99980137806256
99.99993674717618 100.00000252168651 49.99999490243426
50.00002668307129 99.99997602491135 50.0000615992887
0.0 50.00000000025812 50.0
49.99993158787434 49.999975974660906 100.00006147006752
100.00016217621132 50.00000198823769 99.99999353461243
149.99975078348945 50.00007746818227 99.99980377332858
50.00000000006583 50.00002708167642 49.99993056529168
100.0000000000818 49.99999337862914 50.00001697673088
150.0000000000409 49.999927059131196 50.000187013947475

CELLS 16 144
8 0 8 28 15 24 31 42 38
8 24 31 42 38 4 16 39 23
8 15 28 14 3 38 42 37 27
8 38 42 37 27 23 39 22 7
8 8 9 29 28 31 32 43 42
8 31 32 43 42 16 17 40 39
8 28 29 13 14 42 43 36 37
8 42 43 36 37 39 40 21 22
8 9 10 30 29 32 33 44 43
8 32 33 44 43 17 18 41 40
8 29 30 12 13 43 44 35 36
8 43 44 35 36 40 41 20 21
8 10 1 11 30 33 25 34 44
8 33 25 34 44 18 5 19 41
8 30 11 2 12 44 34 26 35
8 44 34 26 35 41 19 6 20

CELL_TYPES 16
12
12
12
12
12
12
12
12
12
12
12
12
12
12
12
12

POINT_DATA 45
SCALARS MODE1_0.0849_Hz float 1
LOOKUP_TABLE default
0.0
7.334034398570556e-05
8.628393957466434e-05
0.0
0.0
8.628393957440342e-05
7.334034398593693e-05
0.0
9.325882486335333e-06
1.1759571735077363e-05
3.048940005846581e-05
7.786280251833326e-05
4.878983859417421e-05
2.663904053626758e-05
1.2826167226826696e-05
0.0
1.282616722724786e-05
2.6639040536000738e-05
4.878983859337792e-05
7.786280251840651e-05
3.048940005887753e-05
1.1759571735055399e-05
9.325882485969284e-06
0.0
0.0
7.168025305484889e-05
7.168025305526055e-05
0.0
1.1090098701783148e-05
1.8936998664295404e-05
3.809396702936924e-05
8.316332397673603e-06
7.4093245678705265e-06
2.730007040847388e-05
6.920924405709397e-05
2.7300070409569176e-05
7.409324567906248e-06
8.316332396644766e-06
0.0
1.1090098702027394e-05
1.8936998664272724e-05
3.809396702919e-05
8.695062506333245e-06
2.1259358575250717e-06
2.3419094024404243e-05

