# vtk DataFile Version 2.0
mesh vtk view
ASCII
DATASET UNSTRUCTURED_GRID
POINTS 45 double
0.0 0.0 0.0
199.99799931549416 0.0028788256809363635 0.0011764199123491463
200.0008779388634 100.00282951732083 0.0010499975132855057
0.0 100.0 0.0
0.0 0.0 100.0
199.99912206113666 0.0028295173208379835 100.00104999751328
200.00200068450587 100.00287882568092 100.00117641991235
0.0 100.0 100.0
50.00049083934562 0.00024382555460438177 4.2283327366545806e-05
99.99886375960733 5.938501789284321e-05 9.407235847316573e-05
150.0017326751029 -0.0010678079748056568 -0.00047945202139868263
200.00056201235444 49.99718455331937 -0.0010930021628052045
149.99923966905567 99.99899013095545 -0.00033090158197533466
100.00049860451216 99.99999414652979 -7.31935201480702e-05
49.99978461050631 100.00029241655103 0.0001668664675788315
0.0 50.00000000025812 0.0
50.000215389625325 0.0002924165510047235 100.0001668664676
99.99950139565142 -5.85347017575563e-06 99.99992680647982
150.00076033102619 -0.0010098690445787695 99.99966909841805
199.99943798764556 49.99718455331937 99.9989069978372
149.998267324979 99.9989321920252 99.99952054797858
100.00113624055625 100.0000593850179 100.0000940723585
49.99950916078601 100.00024382555459 100.00004228332735
0.0 50.00000000025812 100.0
0.0 0.0 50.0
200.00144095139277 -0.0028023636426527513 49.99890189514607
199.99855904860718 99.99719763635736 49.99890189514606
0.0 100.0 50.0
49.99986658648574 49.999692003705995 -0.00011987544322948178
100.00031626678184 50.00002548786966 1.2608432568914667e-05
149.9995139920411 50.00099310961947 0.0003826701378059323
49.99965793881893 -0.0003073503376147303 49.99987987255694
100.00081088029495 3.232693788000514e-05 50.000009940983944
149.99875391696938 0.0009811333571066083 50.00038734124988
200.0 50.002763363325144 50.001077790989626
150.00124608311256 100.00098113335709 50.000387341249905
99.99918911986859 100.0000323269379 50.00000994098392
50.00034206131272 99.99969264966238 49.99987987255696
0.0 50.00000000025812 50.0
50.00013341364593 49.999692003706016 99.99988012455677
99.99968373338174 50.000025487869635 100.00001260843257
150.0004860080407 50.000993109619486 100.0003826701378
50.00000000006583 50.00034717369115 50.0001354076345
100.0000000000818 49.99991511638648 49.99996689294121
150.0000000000409 49.99906493019492 49.99963529599451

CELLS 16 144
8 0 8 28 15 24 31 42 38
8 24 31 42 38 4 16 39 23
8 15 28 14 3 38 42 37 27
8 38 42 37 27 23 39 22 7
8 8 9 29 28 31 32 43 42
8 31 32 43 42 16 17 40 39
8 28 29 13 14 42 43 36 37
8 42 43 36 37 39 40 21 22
8 9 10 30 29 32 33 44 43
8 32 33 44 43 17 18 41 40
8 29 30 12 13 43 44 35 36
8 43 44 35 36 40 41 20 21
8 10 1 11 30 33 25 34 44
8 33 25 34 44 18 5 19 41
8 30 11 2 12 44 34 26 35
8 44 34 26 35 41 19 6 20

CELL_TYPES 16
12
12
12
12
12
12
12
12
12
12
12
12
12
12
12
12

POINT_DATA 45
SCALARS MODE2_0.0849_Hz float 1
LOOKUP_TABLE default
0.0
8.628393957439664e-05
7.334034398594631e-05
0.0
0.0
7.334034398569789e-05
8.628393957467208e-05
0.0
1.2826167227018275e-05
2.6639040535926036e-05
4.878983859345764e-05
7.168025305509545e-05
3.048940005875272e-05
1.1759571735225399e-05
9.325882486284375e-06
0.0
9.325882486019074e-06
1.1759571734907372e-05
3.048940005859283e-05
7.168025305501584e-05
4.878983859409562e-05
2.663904053634242e-05
1.2826167227055744e-05
0.0
0.0
7.786280251822286e-05
7.78628025185172e-05
0.0
8.316332397321339e-06
7.409324567859287e-06
2.7300070408898234e-05
1.1090098701854555e-05
1.8936998664075196e-05
3.809396702902252e-05
6.920924405709452e-05
3.8093967029537436e-05
1.893699866449249e-05
1.1090098701955003e-05
0.0
8.3163323969956e-06
7.409324567917366e-06
2.7300070409147577e-05
8.695062506332384e-06
2.1259358575238833e-06
2.3419094024405443e-05

