# vtk DataFile Version 2.0
mesh vtk view
ASCII
DATASET UNSTRUCTURED_GRID
POINTS 45 double
0.0 0.0 0.0
199.99964882445465 -0.0004199990053115458 0.0011318069283303884
199.99919972619765 99.99952943203506 0.0011515302723754982
0.0 100.0 0.0
0.0 0.0 100.0
200.00080027380235 -0.00047056796494251605 100.00115153027237
200.00035117554535 99.99958000099468 100.00113180692834
0.0 100.0 100.0
50.000086155715955 -6.674658702593589e-05 0.0001169666204176043
99.99980055804899 2.9277408052771637e-05 -2.341388091394452e-06
150.00030413224647 0.00013236063279314822 -0.0004039476178161603
200.0005763805571 50.000439241765264 -0.0011209454570589013
150.0006930705058 100.00019178080856 -0.00042712318993213286
99.99954550450018 99.9999623710566 2.3754007172141353e-05
50.000196336182974 99.99998308666906 9.753022182902055e-05
0.0 50.00000000025812 0.0
49.99980366394867 -1.691333095141433e-05 100.00009753022185
100.00045449566339 -3.762894338421903e-05 100.00002375400715
149.9993069295761 0.00019178080855760323 99.99957287681009
199.9994236194429 50.00043924176527 99.99887905454294
149.99969586783547 100.00013236063278 99.99959605238216
100.00019944211458 100.00002927740807 99.99999765861193
49.99991384441569 99.99993325341295 100.0001169666204
0.0 50.00000000025812 100.0
0.0 0.0 50.0
199.99977519505822 0.00043720086512174367 49.99887382139828
200.00022480494178 100.00043720086512 49.99887382139827
0.0 100.0 50.0
49.999863175682854 50.00004805112673 -0.00012294013504743793
100.00032435234084 49.999996023647334 1.2930775155240331e-05
149.999501566938 49.99984506343233 0.00039245334283962444
50.00005336520841 4.795017729156549e-05 49.99987680142258
99.99987349296735 -5.043373027248601e-06 50.000010195131516
150.00019440292652 -0.0001530680551224757 50.000397243874865
200.0 49.99956888342784 50.00110534540058
149.9998055971554 99.99984693194487 50.000397243874886
100.00012650719621 99.99999495662696 50.00001019513149
49.99994663492323 100.00004795017729 49.9998768014226
0.0 50.00000000025812 50.0
50.00013682444881 50.00004805112675 99.99987705986496
99.99967564782276 49.99999602364731 100.00001293077516
150.0004984331438 49.99984506343234 100.00039245334284
50.00000000006583 49.999945837095716 50.00013886941665
100.0000000000818 50.00001324286441 49.99996604653823
150.0000000000409 50.000145881534486 49.99962597210505

CELLS 16 144
8 0 8 28 15 24 31 42 38
8 24 31 42 38 4 16 39 23
8 15 28 14 3 38 42 37 27
8 38 42 37 27 23 39 22 7
8 8 9 29 28 31 32 43 42
8 31 32 43 42 16 17 40 39
8 28 29 13 14 42 43 36 37
8 42 43 36 37 39 40 21 22
8 9 10 30 29 32 33 44 43
8 32 33 44 43 17 18 41 40
8 29 30 12 13 43 44 35 36
8 43 44 35 36 40 41 20 21
8 10 1 11 30 33 25 34 44
8 33 25 34 44 18 5 19 41
8 30 11 2 12 44 34 26 35
8 44 34 26 35 41 19 6 20

CELL_TYPES 16
12
12
12
12
12
12
12
12
12
12
12
12
12
12
12
12

POINT_DATA 45
SCALARS MODE1_0.0849_Hz float 1
LOOKUP_TABLE default
0.0
7.334034398570556e-05
8.628393957466434e-05
0.0
0.0
8.628393957440342e-05
7.334034398593693e-05
0.0
9.325882486335333e-06
1.1759571735077363e-05
3.048940005846581e-05
7.786280251833326e-05
4.878983859417421e-05
2.663904053626758e-05
1.2826167226826696e-05
0.0
1.282616722724786e-05
2.6639040536000738e-05
4.878983859337792e-05
7.786280251840651e-05
3.048940005887753e-05
1.1759571735055399e-05
9.325882485969284e-06
0.0
0.0
7.168025305484889e-05
7.168025305526055e-05
0.0
1.1090098701783148e-05
1.8936998664295404e-05
3.809396702936924e-05
8.316332397673603e-06
7.4093245678705265e-06
2.730007040847388e-05
6.920924405709397e-05
2.7300070409569176e-05
7.409324567906248e-06
8.316332396644766e-06
0.0
1.1090098702027394e-05
1.8936998664272724e-05
3.809396702919e-05
8.695062506333245e-06
2.1259358575250717e-06
2.3419094024404243e-05

