# vtk DataFile Version 2.0
mesh vtk view
ASCII
DATASET UNSTRUCTURED_GRID
POINTS 45 double
0.0 0.0 0.0
200.00098803792852 -0.0018815354766969867 -0.0018815354766842504
199.99901196207145 99.9981184645233 0.001881535476705928
0.0 100.0 0.0
0.0 0.0 100.0
199.99901196207148 0.0018815354766969854 99.99811846452332
200.00098803792855 100.0018815354767 100.00188153547671
0.0 100.0 100.0
49.99981223258289 -0.00020192887790772507 -0.0002019288779086711
100.00050809146204 4.600762975052122e-05 4.600762975601966e-05
149.99916173563824 0.0006300387444321243 0.000630038744423179
200.0 50.0018633077141 -3.998227739052481e-15
150.0008382644437 100.00063003874442 -0.0006300387444337284
99.99949190870151 100.00004600762976 -4.600762975355497e-05
50.00018776754875 99.99979807112209 0.00020192887791078764
0.0 50.00000000025812 0.0
50.00018776696985 0.000201928877907726 99.99979807112209
99.9994919078327 -4.600762975051894e-05 100.00004600762976
150.00083826381498 -0.0006300387444321272 100.00063003874442
200.0 49.99813669193328 100.0
149.9991617362669 99.99936996125558 99.99936996125557
100.00050809233088 99.99995399237024 99.99995399237025
49.99981223316179 100.00020192887791 100.00020192887791
0.0 50.00000000025812 100.0
0.0 0.0 50.0
200.0 -2.3547142461814393e-18 50.001863307890396
200.0 100.0 49.99813669210958
0.0 100.0 50.0
50.00000000006583 50.000219020050764 6.435863710063606e-16
100.0000000000818 49.99992990108381 -3.932149145179593e-15
150.0000000000409 49.99939159274998 4.971990928765273e-15
49.99999999977637 2.8814977752238405e-18 50.000219019901245
99.99999999964737 -7.419256450849602e-19 49.99992990104291
149.9999999997266 2.6822805003990726e-19 49.999391592817695
200.0 49.99999999982369 50.00000000000001
150.0000000003553 100.0 50.00060840718232
100.0000000005162 100.0 50.00007009895708
50.00000000035527 100.0 49.999780980098755
0.0 50.00000000025812 50.0
50.00000000006583 49.999780980248275 100.0
100.0000000000818 50.00007009899799 100.0
150.0000000000409 50.000608407114605 100.0
50.00000000006583 50.00000000014952 50.0
100.0000000000818 50.0000000000409 50.00000000000001
150.0000000000409 49.99999999993229 49.99999999999999

CELLS 16 144
8 0 8 28 15 24 31 42 38
8 24 31 42 38 4 16 39 23
8 15 28 14 3 38 42 37 27
8 38 42 37 27 23 39 22 7
8 8 9 29 28 31 32 43 42
8 31 32 43 42 16 17 40 39
8 28 29 13 14 42 43 36 37
8 42 43 36 37 39 40 21 22
8 9 10 30 29 32 33 44 43
8 32 33 44 43 17 18 41 40
8 29 30 12 13 43 44 35 36
8 43 44 35 36 40 41 20 21
8 10 1 11 30 33 25 34 44
8 33 25 34 44 18 5 19 41
8 30 11 2 12 44 34 26 35
8 44 34 26 35 41 19 6 20

CELL_TYPES 16
12
12
12
12
12
12
12
12
12
12
12
12
12
12
12
12

POINT_DATA 45
SCALARS MODE4_0.0896_Hz float 1
LOOKUP_TABLE default
0.0
8.278695381300815e-05
8.278695381361732e-05
0.0
0.0
8.278695381300802e-05
8.278695381361722e-05
0.0
9.968305727002044e-06
1.4940358344712206e-05
3.5681030917954895e-05
5.434648013690531e-05
3.5681030918401275e-05
1.494035834501519e-05
9.968305727165743e-06
0.0
9.968305727002071e-06
1.4940358344712054e-05
3.568103091795484e-05
5.4346480136905153e-05
3.568103091840134e-05
1.4940358345015181e-05
9.96830572716577e-06
0.0
0.0
5.43464801365817e-05
5.434648013722872e-05
0.0
6.388080453002116e-06
2.0445529150169634e-06
1.7745209484131224e-05
6.388080452974271e-06
2.044552915060411e-06
1.7745209483971253e-05
1.3410427081180337e-16
1.774520948429111e-05
2.0445529149734894e-06
6.388080453029973e-06
0.0
6.388080453002095e-06
2.0445529150168833e-06
1.7745209484131302e-05
2.525951321614468e-17
1.308546731420574e-16
1.6196185387846677e-16

