# vtk DataFile Version 2.0
mesh vtk view
ASCII
DATASET UNSTRUCTURED_GRID
POINTS 45 double
0.0 0.0 0.0
200.00122911440874 0.00146999651859041 -0.003961324249156359
200.0028009583082 100.00164698787728 -0.004030355953314244
0.0 100.0 0.0
0.0 0.0 100.0
199.9971990416918 0.0016469878772988058 99.99596964404671
199.9987708855913 100.0014699965186 99.99603867575082
0.0 100.0 100.0
49.99969845398783 0.00023361305459077559 -0.000409383171461615
100.00069804524172 -0.0001024709281847007 8.194858319880582e-06
149.99893553590715 -0.0004632622147760187 0.0014138166623565607
199.99798266805007 49.99846265302819 0.003923309099706154
149.99757425482852 99.99932876717001 0.0014949311647624646
100.00159073657227 100.00013170130191 -8.313902510249473e-05
49.9993128249583 100.00005919665827 -0.00034135577640157183
0.0 50.00000000025812 0.0
50.000687175173326 5.9196658329950145e-05 99.99965864422353
99.99840926359131 0.0001317013018447666 99.99991686097499
150.0024257452534 -0.0006712328299516112 100.00149493116469
200.0020173319499 49.998462653028184 100.0039233090997
150.00106446417473 99.99953673778528 100.00141381666243
99.99930195492186 99.99989752907173 100.00000819485822
50.00030154614382 100.00023361305466 99.99959061682861
0.0 50.00000000025812 100.0
0.0 0.0 50.0
200.00078681729622 -0.0015302030279261026 50.00394162510604
199.99921318270376 99.99846979697207 50.00394162510606
0.0 100.0 50.0
50.00047888540625 49.99983182172928 0.0004302904726660326
99.99886476717516 50.000013917418364 -4.525771304334115e-05
150.00174451590104 50.000542277682165 -0.0013735866999386853
49.99981322076424 -0.00016782562052047918 50.00043119502096
100.00044277302743 1.76518055953701e-05 49.999964317039705
149.9993195885269 0.0005357381929286648 49.99860964643797
200.0 50.00150890720917 49.99613129109797
150.00068041155504 100.00053573819292 49.9986096464379
99.99955722713612 100.0000176518056 49.9999643170398
50.00018677936741 99.99983217437948 50.00043119502088
0.0 50.00000000025812 50.0
49.99952111472541 49.99983182172921 100.00043029047266
100.00113523298843 50.00001391741844 99.99995474228696
149.99825548418076 50.00054227768212 99.99862641330006
50.00000000006583 50.000189570837826 49.99951395704172
100.0000000000818 49.999953650158595 50.00011883711618
150.0000000000409 49.99948941432461 50.00130909763232

CELLS 16 144
8 0 8 28 15 24 31 42 38
8 24 31 42 38 4 16 39 23
8 15 28 14 3 38 42 37 27
8 38 42 37 27 23 39 22 7
8 8 9 29 28 31 32 43 42
8 31 32 43 42 16 17 40 39
8 28 29 13 14 42 43 36 37
8 42 43 36 37 39 40 21 22
8 9 10 30 29 32 33 44 43
8 32 33 44 43 17 18 41 40
8 29 30 12 13 43 44 35 36
8 43 44 35 36 40 41 20 21
8 10 1 11 30 33 25 34 44
8 33 25 34 44 18 5 19 41
8 30 11 2 12 44 34 26 35
8 44 34 26 35 41 19 6 20

CELL_TYPES 16
12
12
12
12
12
12
12
12
12
12
12
12
12
12
12
12

POINT_DATA 45
SCALARS MODE1_0.0849_Hz float 1
LOOKUP_TABLE default
0.0
7.334034398570556e-05
8.628393957466434e-05
0.0
0.0
8.628393957440342e-05
7.334034398593693e-05
0.0
9.325882486335333e-06
1.1759571735077363e-05
3.048940005846581e-05
7.786280251833326e-05
4.878983859417421e-05
2.663904053626758e-05
1.2826167226826696e-05
0.0
1.282616722724786e-05
2.6639040536000738e-05
4.878983859337792e-05
7.786280251840651e-05
3.048940005887753e-05
1.1759571735055399e-05
9.325882485969284e-06
0.0
0.0
7.168025305484889e-05
7.168025305526055e-05
0.0
1.1090098701783148e-05
1.8936998664295404e-05
3.809396702936924e-05
8.316332397673603e-06
7.4093245678705265e-06
2.730007040847388e-05
6.920924405709397e-05
2.7300070409569176e-05
7.409324567906248e-06
8.316332396644766e-06
0.0
1.1090098702027394e-05
1.8936998664272724e-05
3.809396702919e-05
8.695062506333245e-06
2.1259358575250717e-06
2.3419094024404243e-05

