# vtk DataFile Version 2.0
mesh vtk view
ASCII
DATASET UNSTRUCTURED_GRID
POINTS 45 double
0.0 0.0 0.0
199.99918761982477 -0.0005789818634300939 -0.0005789818635089674
200.00081238017532 99.99942101813656 0.0005789818633618359
0.0 100.0 0.0
0.0 0.0 100.0
200.00081238017523 0.0005789818634301994 99.99942101813649
199.99918761982468 100.00057898186344 100.00057898186336
0.0 100.0 100.0
49.99967697589534 0.0011251876353570137 0.001125187635334548
100.00003747588765 -0.0021193003940210035 -0.0021193003940102972
150.00052820953923 0.0019291788672699762 0.0019291788672982841
199.99999999999994 50.00061172338405 7.616218262133314e-14
149.9994717905426 100.00192917886727 -0.0019291788672502817
99.99996252427599 99.99788069960599 0.0021193003940296585
50.00032302423627 100.00112518763535 -0.0011251876353717057
0.0 50.00000000025812 0.0
50.0003230236574 -0.0011251876353570065 100.00112518763534
99.99996252340709 0.002119300394020996 99.99788069960599
149.999471789914 -0.0019291788672700213 100.0019291788673
200.00000000000006 49.99938827626334 100.00000000000007
150.000528210168 99.99807082113273 99.99807082113276
100.0000374767564 100.00211930039401 100.00211930039403
49.99967697647427 99.99887481236465 99.99887481236463
0.0 50.00000000025812 100.0
0.0 0.0 50.0
200.0 -4.8067609928471673e-17 50.000611723560425
200.0 100.0 49.99938827643972
0.0 100.0 50.0
50.000000000065846 49.99886691611289 1.94532600997364e-14
100.00000000008177 50.00215012972672 -7.698086759009068e-15
150.00000000004096 49.99803454448582 -2.9225476307613084e-14
49.99999999977637 -9.30059186724385e-19 49.99886691596339
99.99999999964737 1.9255058606149e-18 50.00215012968581
149.9999999997266 2.034897709052292e-17 49.998034544553505
200.0 49.99999999982369 49.99999999999992
150.0000000003553 100.0 50.001965455446445
100.0000000005162 100.0 49.99784987031417
50.00000000035527 100.0 50.00113308403665
0.0 50.00000000025812 50.0
50.00000000006582 50.00113308418615 100.00000000000001
100.00000000008183 49.997849870355076 99.99999999999999
150.00000000004084 50.001965455378766 99.99999999999997
50.00000000006583 50.00000000014952 49.99999999999998
100.0000000000818 50.0000000000409 50.00000000000001
150.0000000000409 49.99999999993229 50.00000000000003

CELLS 16 144
8 0 8 28 15 24 31 42 38
8 24 31 42 38 4 16 39 23
8 15 28 14 3 38 42 37 27
8 38 42 37 27 23 39 22 7
8 8 9 29 28 31 32 43 42
8 31 32 43 42 16 17 40 39
8 28 29 13 14 42 43 36 37
8 42 43 36 37 39 40 21 22
8 9 10 30 29 32 33 44 43
8 32 33 44 43 17 18 41 40
8 29 30 12 13 43 44 35 36
8 43 44 35 36 40 41 20 21
8 10 1 11 30 33 25 34 44
8 33 25 34 44 18 5 19 41
8 30 11 2 12 44 34 26 35
8 44 34 26 35 41 19 6 20

CELL_TYPES 16
12
12
12
12
12
12
12
12
12
12
12
12
12
12
12
12

POINT_DATA 45
SCALARS MODE3_0.0873_Hz float 1
LOOKUP_TABLE default
0.0
1.9223838973376715e-05
1.9223838973484888e-05
0.0
0.0
1.922383897337692e-05
1.9223838973485376e-05
0.0
2.7061857419559757e-05
4.9956294200072724e-05
4.6315547575797645e-05
1.019539267257651e-05
4.631554757564534e-05
4.995629420026266e-05
2.706185741979337e-05
0.0
2.7061857419559788e-05
4.9956294200072684e-05
4.6315547575798086e-05
1.0195392672578193e-05
4.631554757564575e-05
4.995629420026258e-05
2.7061857419793274e-05
0.0
0.0
1.0195392673802076e-05
1.0195392671352456e-05
0.0
1.8884733943879858e-05
3.583549476368366e-05
3.275759077450171e-05
1.888473394353988e-05
3.583549476349411e-05
3.275759077489008e-05
1.2737737959848683e-15
3.275759077411373e-05
3.5835494763872983e-05
1.888473394421969e-05
0.0
1.888473394387971e-05
3.583549476368344e-05
3.275759077450236e-05
3.5354019295110955e-16
1.537530599435624e-16
4.804456569204287e-16

