# vtk DataFile Version 2.0
mesh vtk view
ASCII
DATASET UNSTRUCTURED_GRID
POINTS 45 double
0.0 0.0 0.0
200.0 0.0 0.0
200.0 100.0 0.0
0.0 100.0 0.0
0.0 0.0 100.0
200.0 0.0 100.0
200.0 100.0 100.0
0.0 100.0 100.0
49.99999999977637 0.0 0.0
99.99999999964737 0.0 0.0
149.9999999997266 0.0 0.0
200.0 49.99999999982369 0.0
150.0000000003553 100.0 0.0
100.0000000005162 100.0 0.0
50.00000000035527 100.0 0.0
0.0 50.00000000025812 0.0
49.99999999977637 0.0 100.0
99.99999999964737 0.0 100.0
149.9999999997266 0.0 100.0
200.0 49.99999999982369 100.0
150.0000000003553 100.0 100.0
100.0000000005162 100.0 100.0
50.00000000035527 100.0 100.0
0.0 50.00000000025812 100.0
0.0 0.0 50.0
200.0 0.0 50.0
200.0 100.0 50.0
0.0 100.0 50.0
50.00000000006583 50.00000000014952 0.0
100.0000000000818 50.0000000000409 0.0
150.0000000000409 49.99999999993229 0.0
49.99999999977637 0.0 50.0
99.99999999964737 0.0 50.0
149.9999999997266 0.0 50.0
200.0 49.99999999982369 50.0
150.0000000003553 100.0 50.0
100.0000000005162 100.0 50.0
50.00000000035527 100.0 50.0
0.0 50.00000000025812 50.0
50.00000000006583 50.00000000014952 100.0
100.0000000000818 50.0000000000409 100.0
150.0000000000409 49.99999999993229 100.0
50.00000000006583 50.00000000014952 50.0
100.0000000000818 50.0000000000409 50.0
150.0000000000409 49.99999999993229 50.0

CELLS 16 144
8 0 8 28 15 24 31 42 38
8 24 31 42 38 4 16 39 23
8 15 28 14 3 38 42 37 27
8 38 42 37 27 23 39 22 7
8 8 9 29 28 31 32 43 42
8 31 32 43 42 16 17 40 39
8 28 29 13 14 42 43 36 37
8 42 43 36 37 39 40 21 22
8 9 10 30 29 32 33 44 43
8 32 33 44 43 17 18 41 40
8 29 30 12 13 43 44 35 36
8 43 44 35 36 40 41 20 21
8 10 1 11 30 33 25 34 44
8 33 25 34 44 18 5 19 41
8 30 11 2 12 44 34 26 35
8 44 34 26 35 41 19 6 20

CELL_TYPES 16
12
12
12
12
12
12
12
12
12
12
12
12
12
12
12
12

POINT_DATA 45
SCALARS MODE1_0.0849_Hz float 1
LOOKUP_TABLE default
0.0
7.334034398570556e-05
8.628393957466434e-05
0.0
0.0
8.628393957440342e-05
7.334034398593693e-05
0.0
9.325882486335333e-06
1.1759571735077363e-05
3.048940005846581e-05
7.786280251833326e-05
4.878983859417421e-05
2.663904053626758e-05
1.2826167226826696e-05
0.0
1.282616722724786e-05
2.6639040536000738e-05
4.878983859337792e-05
7.786280251840651e-05
3.048940005887753e-05
1.1759571735055399e-05
9.325882485969284e-06
0.0
0.0
7.168025305484889e-05
7.168025305526055e-05
0.0
1.1090098701783148e-05
1.8936998664295404e-05
3.809396702936924e-05
8.316332397673603e-06
7.4093245678705265e-06
2.730007040847388e-05
6.920924405709397e-05
2.7300070409569176e-05
7.409324567906248e-06
8.316332396644766e-06
0.0
1.1090098702027394e-05
1.8936998664272724e-05
3.809396702919e-05
8.695062506333245e-06
2.1259358575250717e-06
2.3419094024404243e-05

