# vtk DataFile Version 2.0
mesh vtk view
ASCII
DATASET UNSTRUCTURED_GRID
POINTS 45 double
0.0 0.0 0.0
200.002400821407 -0.003454590817123636 -0.0014117038948189755
199.99894647336393 99.996604579215 -0.0012599970159426067
0.0 100.0 0.0
0.0 0.0 100.0
200.001053526636 -0.0033954207850055798 99.99874000298406
199.99759917859294 99.99654540918289 99.99858829610518
0.0 100.0 100.0
49.99941099229327 -0.00029259066552525813 -5.073999283985497e-05
100.00136348769541 -7.126202147141184e-05 -0.00011288683016779886
149.9979207892751 0.001281369569766788 0.0005753424256784191
199.99932558517466 50.003378535628876 0.001311602595366245
150.00091239791485 100.00121184285346 0.00039708189837040154
99.99940167572103 100.00000702416425 8.783222417768422e-05
50.000258468174025 99.99964910013877 -0.0002002397610945978
0.0 50.00000000025812 0.0
49.999741531957625 -0.0003508998612056682 99.99979976023889
100.0005983244425 7.0241642109067555e-06 100.00008783222421
149.99908760216712 0.0012118428534945234 100.00039708189834
200.00067441482534 50.003378535628876 100.00131160259537
150.00207921080684 100.00128136956977 100.0005753424257
99.99863651246812 99.99992873797852 99.9998871131698
50.000589007838386 99.99970740933449 99.99994926000718
0.0 50.00000000025812 100.0
0.0 0.0 50.0
199.99827085832868 0.0033628363711833012 50.00131772582471
200.00172914167138 100.00336283637117 50.00131772582473
0.0 100.0 50.0
50.000160096361945 50.00036959588175 0.00014385053187537813
99.99962048004174 49.99996941464639 -1.51301190826976e-05
150.00058320964067 49.99880826830768 -0.00045920416536711876
50.0004104729253 0.00036882040513767635 50.000144152931675
99.99902694287027 -3.8792325456006163e-05 49.99998807081926
150.00149529903527 -0.0011773600285279297 49.99953519050014
200.0 49.99668396362195 49.99870665081245
149.99850470104658 99.9988226399715 49.99953519050012
100.00097305729332 99.99996120767453 49.9999880708193
49.99958952720633 100.00036882040514 50.000144152931654
0.0 50.00000000025812 50.0
49.99983990376971 50.00036959588173 100.00014385053187
100.00037952012185 49.999969414646415 99.99998486988092
149.99941679044113 49.99880826830766 99.99954079583463
50.00000000006583 49.99958339189956 49.999837510838596
100.0000000000818 50.0001018604262 50.00003972847055
150.0000000000409 50.00112208361714 50.00043764480659

CELLS 16 144
8 0 8 28 15 24 31 42 38
8 24 31 42 38 4 16 39 23
8 15 28 14 3 38 42 37 27
8 38 42 37 27 23 39 22 7
8 8 9 29 28 31 32 43 42
8 31 32 43 42 16 17 40 39
8 28 29 13 14 42 43 36 37
8 42 43 36 37 39 40 21 22
8 9 10 30 29 32 33 44 43
8 32 33 44 43 17 18 41 40
8 29 30 12 13 43 44 35 36
8 43 44 35 36 40 41 20 21
8 10 1 11 30 33 25 34 44
8 33 25 34 44 18 5 19 41
8 30 11 2 12 44 34 26 35
8 44 34 26 35 41 19 6 20

CELL_TYPES 16
12
12
12
12
12
12
12
12
12
12
12
12
12
12
12
12

POINT_DATA 45
SCALARS MODE2_0.0849_Hz float 1
LOOKUP_TABLE default
0.0
8.628393957439664e-05
7.334034398594631e-05
0.0
0.0
7.334034398569789e-05
8.628393957467208e-05
0.0
1.2826167227018275e-05
2.6639040535926036e-05
4.878983859345764e-05
7.168025305509545e-05
3.048940005875272e-05
1.1759571735225399e-05
9.325882486284375e-06
0.0
9.325882486019074e-06
1.1759571734907372e-05
3.048940005859283e-05
7.168025305501584e-05
4.878983859409562e-05
2.663904053634242e-05
1.2826167227055744e-05
0.0
0.0
7.786280251822286e-05
7.78628025185172e-05
0.0
8.316332397321339e-06
7.409324567859287e-06
2.7300070408898234e-05
1.1090098701854555e-05
1.8936998664075196e-05
3.809396702902252e-05
6.920924405709452e-05
3.8093967029537436e-05
1.893699866449249e-05
1.1090098701955003e-05
0.0
8.3163323969956e-06
7.409324567917366e-06
2.7300070409147577e-05
8.695062506332384e-06
2.1259358575238833e-06
2.3419094024405443e-05

