# vtk DataFile Version 2.0
mesh vtk view
ASCII
DATASET UNSTRUCTURED_GRID
POINTS 45 double
0.0 0.0 0.0
200.00052676331802 0.0006299985079673184 -0.0016977103924955819
200.00120041070352 100.0007058519474 -0.0017272954085632468
0.0 100.0 0.0
0.0 0.0 100.0
199.99879958929648 0.0007058519474137738 99.99827270459144
199.99947323668198 100.00062999850797 99.9983022896075
0.0 100.0 100.0
49.999870765866994 0.00010011988053890379 -0.0001754499306264064
100.00029916204495 -4.3916112079157435e-05 3.5120821370916766e-06
149.99954380094684 -0.00019854094918972224 0.0006059214267242402
199.9991354291643 49.99934113691133 0.0016814181855883514
149.99896039512953 99.99971232878714 0.000640684784898199
100.00068174454023 100.0000564434151 -3.5631010758212014e-05
49.999705496613714 100.00002536999641 -0.00014629533274353076
0.0 50.00000000025812 0.0
50.00029450351792 2.5369996427121485e-05 99.99985370466723
99.99931825562335 5.644341507632853e-05 99.99996436898928
150.00103960495238 -0.00028767121283640473 100.00064068478487
200.0008645708357 49.99934113691133 100.00168141818558
150.00045619913504 99.99980145905083 100.00060592142675
99.99970083811863 99.99995608388788 100.0000035120821
50.00012923426465 100.00010011988057 99.9998245500694
0.0 50.00000000025812 100.0
0.0 0.0 50.0
200.00033720741266 -0.0006558012976826152 50.001689267902584
199.99966279258732 99.99934419870232 50.0016892679026
0.0 100.0 50.0
50.0002052366403 49.9999279236837 0.0001844102025711568
99.99951347169325 50.00000596463124 -1.939616273286049e-05
150.00074764969526 50.00023240468224 -0.0005886800142594364
49.999919951628314 -7.19252659373482e-05 50.000184797866126
100.00018975966739 7.565059540872899e-06 49.99998470730273
149.99970839492673 0.00022960208268371342 49.9994041341877
200.0 50.00064667441747 49.99834198189913
150.00029160515518 100.00022960208268 49.99940413418767
99.99981024049616 100.00000756505955 49.99998470730277
50.00008004850333 99.99992807473406 50.00018479786609
0.0 50.00000000025812 50.0
49.999794763491366 49.99992792368367 100.00018441020256
100.00048652847035 50.00000596463128 99.99998060383727
149.99925235038654 50.000232404682215 99.99941131998574
50.00000000006583 50.000081244730225 49.999791695875025
100.0000000000818 49.99998013580562 50.00005093019265
150.0000000000409 49.999781177528995 50.000561041842424

CELLS 16 144
8 0 8 28 15 24 31 42 38
8 24 31 42 38 4 16 39 23
8 15 28 14 3 38 42 37 27
8 38 42 37 27 23 39 22 7
8 8 9 29 28 31 32 43 42
8 31 32 43 42 16 17 40 39
8 28 29 13 14 42 43 36 37
8 42 43 36 37 39 40 21 22
8 9 10 30 29 32 33 44 43
8 32 33 44 43 17 18 41 40
8 29 30 12 13 43 44 35 36
8 43 44 35 36 40 41 20 21
8 10 1 11 30 33 25 34 44
8 33 25 34 44 18 5 19 41
8 30 11 2 12 44 34 26 35
8 44 34 26 35 41 19 6 20

CELL_TYPES 16
12
12
12
12
12
12
12
12
12
12
12
12
12
12
12
12

POINT_DATA 45
SCALARS MODE1_0.0849_Hz float 1
LOOKUP_TABLE default
0.0
7.334034398570556e-05
8.628393957466434e-05
0.0
0.0
8.628393957440342e-05
7.334034398593693e-05
0.0
9.325882486335333e-06
1.1759571735077363e-05
3.048940005846581e-05
7.786280251833326e-05
4.878983859417421e-05
2.663904053626758e-05
1.2826167226826696e-05
0.0
1.282616722724786e-05
2.6639040536000738e-05
4.878983859337792e-05
7.786280251840651e-05
3.048940005887753e-05
1.1759571735055399e-05
9.325882485969284e-06
0.0
0.0
7.168025305484889e-05
7.168025305526055e-05
0.0
1.1090098701783148e-05
1.8936998664295404e-05
3.809396702936924e-05
8.316332397673603e-06
7.4093245678705265e-06
2.730007040847388e-05
6.920924405709397e-05
2.7300070409569176e-05
7.409324567906248e-06
8.316332396644766e-06
0.0
1.1090098702027394e-05
1.8936998664272724e-05
3.809396702919e-05
8.695062506333245e-06
2.1259358575250717e-06
2.3419094024404243e-05

