# vtk DataFile Version 2.0
mesh vtk view
ASCII
DATASET UNSTRUCTURED_GRID
POINTS 45 double
0.0 0.0 0.0
200.00035117554535 0.00041999900531154564 -0.001131806928330388
200.00080027380235 100.00047056796494 -0.0011515302723754978
0.0 100.0 0.0
0.0 0.0 100.0
199.99919972619765 0.00047056796494251583 99.99884846972763
199.99964882445465 100.00041999900532 99.99886819307166
0.0 100.0 100.0
49.99991384383679 6.674658702593586e-05 -0.00011696662041760426
100.00019944124575 -2.9277408052771624e-05 2.3413880913944512e-06
149.99969586720675 -0.00013236063279314816 0.00040394761781616014
199.9994236194429 49.99956075788212 0.0011209454570589009
149.9993069302048 99.99980821919144 0.00042712318993213264
100.00045449653221 100.0000376289434 -2.3754007172141343e-05
49.99980366452757 100.00001691333094 -9.753022182902051e-05
0.0 50.00000000025812 0.0
50.00019633560407 1.6913330951414323e-05 99.99990246977815
99.99954550363135 3.7628943384219016e-05 99.99997624599285
150.00069306987712 -0.00019178080855760315 100.00042712318991
200.0005763805571 49.999560757882115 100.00112094545706
150.00030413287513 99.99986763936722 100.00040394761784
99.99980055891781 99.99997072259193 100.00000234138807
50.000086156294856 100.00006674658705 99.9998830333796
0.0 50.00000000025812 100.0
0.0 0.0 50.0
200.00022480494178 -0.0004372008651217435 50.00112617860172
199.99977519505822 99.99956279913488 50.00112617860173
0.0 100.0 50.0
50.00013682444881 49.999951949172306 0.00012294013504743787
99.99967564782276 50.00000397643446 -1.2930775155240326e-05
150.0004984331438 50.00015493643225 -0.0003924533428396243
49.99994663434433 -4.7950177291565475e-05 50.00012319857742
100.00012650632739 5.043373027248599e-06 49.999989804868484
149.9998055965267 0.00015306805512247561 49.999602756125135
200.0 50.000431116219545 49.99889465459942
150.0001944035552 100.00015306805513 49.999602756125114
99.99987349383618 100.00000504337304 49.99998980486851
50.00005336578731 99.99995204982271 50.0001231985774
0.0 50.00000000025812 50.0
49.999863175682854 49.99995194917229 100.00012294013504
100.00032435234084 50.000003976434485 99.99998706922484
149.999501566938 50.000154936432246 99.99960754665716
50.00000000006583 50.00005416320332 49.99986113058335
100.0000000000818 49.999986757217386 50.00003395346177
150.0000000000409 49.9998541183301 50.00037402789495

CELLS 16 144
8 0 8 28 15 24 31 42 38
8 24 31 42 38 4 16 39 23
8 15 28 14 3 38 42 37 27
8 38 42 37 27 23 39 22 7
8 8 9 29 28 31 32 43 42
8 31 32 43 42 16 17 40 39
8 28 29 13 14 42 43 36 37
8 42 43 36 37 39 40 21 22
8 9 10 30 29 32 33 44 43
8 32 33 44 43 17 18 41 40
8 29 30 12 13 43 44 35 36
8 43 44 35 36 40 41 20 21
8 10 1 11 30 33 25 34 44
8 33 25 34 44 18 5 19 41
8 30 11 2 12 44 34 26 35
8 44 34 26 35 41 19 6 20

CELL_TYPES 16
12
12
12
12
12
12
12
12
12
12
12
12
12
12
12
12

POINT_DATA 45
SCALARS MODE1_0.0849_Hz float 1
LOOKUP_TABLE default
0.0
7.334034398570556e-05
8.628393957466434e-05
0.0
0.0
8.628393957440342e-05
7.334034398593693e-05
0.0
9.325882486335333e-06
1.1759571735077363e-05
3.048940005846581e-05
7.786280251833326e-05
4.878983859417421e-05
2.663904053626758e-05
1.2826167226826696e-05
0.0
1.282616722724786e-05
2.6639040536000738e-05
4.878983859337792e-05
7.786280251840651e-05
3.048940005887753e-05
1.1759571735055399e-05
9.325882485969284e-06
0.0
0.0
7.168025305484889e-05
7.168025305526055e-05
0.0
1.1090098701783148e-05
1.8936998664295404e-05
3.809396702936924e-05
8.316332397673603e-06
7.4093245678705265e-06
2.730007040847388e-05
6.920924405709397e-05
2.7300070409569176e-05
7.409324567906248e-06
8.316332396644766e-06
0.0
1.1090098702027394e-05
1.8936998664272724e-05
3.809396702919e-05
8.695062506333245e-06
2.1259358575250717e-06
2.3419094024404243e-05

