# vtk DataFile Version 2.0
mesh vtk view
ASCII
DATASET UNSTRUCTURED_GRID
POINTS 45 double
0.0 0.0 0.0
199.9991220611366 -0.0010499975132788645 0.002829517320825971
199.99799931549413 99.99882358008766 0.0028788256809387457
0.0 100.0 0.0
0.0 0.0 100.0
200.00200068450587 -0.00117641991235629 100.00287882568092
200.00087793886337 99.99895000248672 100.00282951732085
0.0 100.0 100.0
50.000215389625325 -0.0001668664675648397 0.00029241655104401076
99.99950139565141 7.319352013192908e-05 -5.85347022848613e-06
150.0007603310262 0.0003309015819828705 -0.0010098690445404007
200.0014409513928 50.001098104677624 -0.002802363642647253
150.00173267573157 100.00047945202142 -0.001067807974830332
99.99886376047614 99.99990592764149 5.9385017930353384e-05
50.00049083992453 99.99995771667267 0.00024382555457255135
0.0 50.00000000025812 0.0
49.99950916020712 -4.228332737853582e-05 100.00024382555462
100.00113623968741 -9.407235846054757e-05 100.00005938501786
149.99826732435034 0.00047945202139400804 99.99893219202522
199.9985590486072 50.00109810467763 99.99719763635736
149.9992396690557 100.00033090158195 99.9989901309554
100.00049860451215 100.0000731935202 99.99999414652984
49.99978461050631 99.99983313353239 100.00029241655099
0.0 50.00000000025812 100.0
0.0 0.0 50.0
199.99943798764556 0.0010930021628043592 49.997184553495686
200.00056201235446 100.0010930021628 49.99718455349567
0.0 100.0 50.0
49.99965793910839 50.00012012759255 -0.0003073503376185948
100.00081088072939 49.99999005905699 3.232693788810082e-05
149.99875391728366 49.99961265868238 0.000981133357099061
50.000133413356465 0.00011987544322891372 49.99969200355646
99.99968373294733 -1.2608432568121502e-05 50.000025487828786
150.0004860077264 -0.0003826701378061892 50.000993109687165
200.0 49.99892220883407 50.00276336350145
149.99951399235547 99.9996173298622 50.000993109687215
100.00031626721625 99.99998739156743 50.000025487828715
49.99986658677518 100.00011987544323 49.99969200355651
0.0 50.00000000025812 50.0
50.000342061023275 50.000120127592595 99.99969264966238
99.9991891194342 49.999990059056934 100.00003232693788
150.00124608279813 49.999612658682416 100.0009811333571
50.00000000006583 49.99986459251502 50.00034717354163
100.0000000000818 50.00003310709969 49.99991511634558
150.0000000000409 50.000364703937784 49.99906493026263

CELLS 16 144
8 0 8 28 15 24 31 42 38
8 24 31 42 38 4 16 39 23
8 15 28 14 3 38 42 37 27
8 38 42 37 27 23 39 22 7
8 8 9 29 28 31 32 43 42
8 31 32 43 42 16 17 40 39
8 28 29 13 14 42 43 36 37
8 42 43 36 37 39 40 21 22
8 9 10 30 29 32 33 44 43
8 32 33 44 43 17 18 41 40
8 29 30 12 13 43 44 35 36
8 43 44 35 36 40 41 20 21
8 10 1 11 30 33 25 34 44
8 33 25 34 44 18 5 19 41
8 30 11 2 12 44 34 26 35
8 44 34 26 35 41 19 6 20

CELL_TYPES 16
12
12
12
12
12
12
12
12
12
12
12
12
12
12
12
12

POINT_DATA 45
SCALARS MODE1_0.0849_Hz float 1
LOOKUP_TABLE default
0.0
7.334034398570556e-05
8.628393957466434e-05
0.0
0.0
8.628393957440342e-05
7.334034398593693e-05
0.0
9.325882486335333e-06
1.1759571735077363e-05
3.048940005846581e-05
7.786280251833326e-05
4.878983859417421e-05
2.663904053626758e-05
1.2826167226826696e-05
0.0
1.282616722724786e-05
2.6639040536000738e-05
4.878983859337792e-05
7.786280251840651e-05
3.048940005887753e-05
1.1759571735055399e-05
9.325882485969284e-06
0.0
0.0
7.168025305484889e-05
7.168025305526055e-05
0.0
1.1090098701783148e-05
1.8936998664295404e-05
3.809396702936924e-05
8.316332397673603e-06
7.4093245678705265e-06
2.730007040847388e-05
6.920924405709397e-05
2.7300070409569176e-05
7.409324567906248e-06
8.316332396644766e-06
0.0
1.1090098702027394e-05
1.8936998664272724e-05
3.809396702919e-05
8.695062506333245e-06
2.1259358575250717e-06
2.3419094024404243e-05

