# vtk DataFile Version 2.0
mesh vtk view
ASCII
DATASET UNSTRUCTURED_GRID
POINTS 45 double
0.0 0.0 0.0
199.99876495258934 0.0023519193458712345 0.0023519193458553136
200.0012350474107 100.00235191934587 -0.002351919345882411
0.0 100.0 0.0
0.0 0.0 100.0
200.00123504741066 -0.0023519193458712328 100.00235191934586
199.9987649525893 99.99764808065413 99.99764808065412
0.0 100.0 100.0
50.00023470876822 0.0002524110973846564 0.00025241109738583894
99.99936488487903 -5.750953718815155e-05 -5.750953719502459e-05
150.0010478298371 -0.0007875484305401556 -0.000787548430528974
200.0 49.99767086496068 4.997784673815602e-15
149.9989521702448 99.99921245156946 0.0007875484305421607
100.00063511528455 99.9999424904628 5.750953719194373e-05
49.99976529136342 100.00025241109739 -0.00025241109738848467
0.0 50.00000000025812 0.0
49.999765290784524 -0.00025241109738465754 100.00025241109739
100.00063511441572 5.7509537188148694e-05 99.9999424904628
149.99895216961613 0.0007875484305401594 99.99921245156948
200.0 50.002329134686704 100.0
150.0010478304658 100.00078754843054 100.00078754843054
99.99936488574784 100.0000575095372 100.00005750953719
50.000234709347126 99.99974758890261 99.99974758890261
0.0 50.00000000025812 100.0
0.0 0.0 50.0
200.0 2.9433928077268e-18 49.997670865137
200.0 100.0 50.002329134863025
0.0 100.0 50.0
50.00000000006583 49.999726225272966 -8.044829637579511e-16
100.0000000000818 50.00008762373726 4.915186431474492e-15
150.0000000000409 50.00076050891018 -6.214988660956593e-15
49.99999999977637 -3.601872219029802e-18 49.999726225123446
99.99999999964737 9.274070563562006e-19 50.00008762369636
149.9999999997266 -3.3528506254988417e-19 50.00076050897788
200.0 49.99999999982369 49.99999999999999
150.0000000003553 100.0 49.9992394910221
100.0000000005162 100.0 49.99991237630364
50.00000000035527 100.0 50.00027377487656
0.0 50.00000000025812 50.0
50.00000000006583 50.00027377502607 100.0
100.0000000000818 49.99991237634454 100.0
150.0000000000409 49.9992394909544 100.0
50.00000000006583 50.00000000014952 50.0
100.0000000000818 50.0000000000409 49.99999999999999
150.0000000000409 49.99999999993229 50.00000000000001

CELLS 16 144
8 0 8 28 15 24 31 42 38
8 24 31 42 38 4 16 39 23
8 15 28 14 3 38 42 37 27
8 38 42 37 27 23 39 22 7
8 8 9 29 28 31 32 43 42
8 31 32 43 42 16 17 40 39
8 28 29 13 14 42 43 36 37
8 42 43 36 37 39 40 21 22
8 9 10 30 29 32 33 44 43
8 32 33 44 43 17 18 41 40
8 29 30 12 13 43 44 35 36
8 43 44 35 36 40 41 20 21
8 10 1 11 30 33 25 34 44
8 33 25 34 44 18 5 19 41
8 30 11 2 12 44 34 26 35
8 44 34 26 35 41 19 6 20

CELL_TYPES 16
12
12
12
12
12
12
12
12
12
12
12
12
12
12
12
12

POINT_DATA 45
SCALARS MODE4_0.0896_Hz float 1
LOOKUP_TABLE default
0.0
8.278695381300815e-05
8.278695381361732e-05
0.0
0.0
8.278695381300802e-05
8.278695381361722e-05
0.0
9.968305727002044e-06
1.4940358344712206e-05
3.5681030917954895e-05
5.434648013690531e-05
3.5681030918401275e-05
1.494035834501519e-05
9.968305727165743e-06
0.0
9.968305727002071e-06
1.4940358344712054e-05
3.568103091795484e-05
5.4346480136905153e-05
3.568103091840134e-05
1.4940358345015181e-05
9.96830572716577e-06
0.0
0.0
5.43464801365817e-05
5.434648013722872e-05
0.0
6.388080453002116e-06
2.0445529150169634e-06
1.7745209484131224e-05
6.388080452974271e-06
2.044552915060411e-06
1.7745209483971253e-05
1.3410427081180337e-16
1.774520948429111e-05
2.0445529149734894e-06
6.388080453029973e-06
0.0
6.388080453002095e-06
2.0445529150168833e-06
1.7745209484131302e-05
2.525951321614468e-17
1.308546731420574e-16
1.6196185387846677e-16

