# vtk DataFile Version 2.0
mesh vtk view
ASCII
DATASET UNSTRUCTURED_GRID
POINTS 45 double
0.0 0.0 0.0
199.9997678913785 -0.00016542338955145537 -0.00016542338957399065
200.00023210862153 99.99983457661044 0.0001654233895319531
0.0 100.0 0.0
0.0 0.0 100.0
200.0002321086215 0.00016542338955148552 99.99983457661043
199.99976789137847 100.00016542338956 100.00016542338953
0.0 100.0 100.0
49.99990770723893 0.0003214821815305753 0.0003214821815241565
100.0000107071446 -0.0006055143982917151 -0.0006055143982886562
150.00015091681593 0.0005511939620771359 0.0005511939620852239
200.0 50.000174777983794 2.1760623606095176e-14
149.99984908326596 100.00055119396208 -0.0005511939620715089
99.999989293019 99.99939448560171 0.000605514398294188
50.0000922928927 100.00032148218153 -0.000321482181534773
0.0 50.00000000025812 0.0
50.00009229231381 -0.00032148218153057323 100.00032148218152
99.99998929215015 0.000605514398291713 99.99939448560171
149.9998490826373 -0.0005511939620771488 100.00055119396208
200.0 49.99982522166359 100.00000000000003
150.00015091744464 99.99944880603792 99.99944880603793
100.00001070801339 100.00060551439829 100.00060551439829
49.99990770781784 99.99967851781847 99.99967851781847
0.0 50.00000000025812 100.0
0.0 0.0 50.0
200.0 -1.373360283670619e-17 50.00017477816012
200.0 100.0 49.99982522183992
0.0 100.0 50.0
50.00000000006584 49.99967626185334 5.5580743142103976e-15
100.00000000008178 50.000614322808275 -2.1994533597168763e-15
150.0000000000409 49.9994384412333 -8.350136087889451e-15
49.99999999977637 -2.657311962069671e-19 49.999676261703826
99.99999999964737 5.501445316042569e-19 50.000614322767376
149.9999999997266 5.813993454435118e-18 49.999438441301
200.0 49.99999999982369 49.99999999999998
150.0000000003553 100.0 50.00056155869898
100.0000000005162 100.0 49.99938567723262
50.00000000035527 100.0 50.00032373829619
0.0 50.00000000025812 50.0
50.000000000065825 50.0003237384457 100.0
100.00000000008181 49.99938567727352 100.0
150.0000000000409 50.00056155863128 99.99999999999999
50.00000000006583 50.00000000014952 49.99999999999999
100.0000000000818 50.0000000000409 50.0
150.0000000000409 49.99999999993229 50.00000000000001

CELLS 16 144
8 0 8 28 15 24 31 42 38
8 24 31 42 38 4 16 39 23
8 15 28 14 3 38 42 37 27
8 38 42 37 27 23 39 22 7
8 8 9 29 28 31 32 43 42
8 31 32 43 42 16 17 40 39
8 28 29 13 14 42 43 36 37
8 42 43 36 37 39 40 21 22
8 9 10 30 29 32 33 44 43
8 32 33 44 43 17 18 41 40
8 29 30 12 13 43 44 35 36
8 43 44 35 36 40 41 20 21
8 10 1 11 30 33 25 34 44
8 33 25 34 44 18 5 19 41
8 30 11 2 12 44 34 26 35
8 44 34 26 35 41 19 6 20

CELL_TYPES 16
12
12
12
12
12
12
12
12
12
12
12
12
12
12
12
12

POINT_DATA 45
SCALARS MODE3_0.0873_Hz float 1
LOOKUP_TABLE default
0.0
1.9223838973376715e-05
1.9223838973484888e-05
0.0
0.0
1.922383897337692e-05
1.9223838973485376e-05
0.0
2.7061857419559757e-05
4.9956294200072724e-05
4.6315547575797645e-05
1.019539267257651e-05
4.631554757564534e-05
4.995629420026266e-05
2.706185741979337e-05
0.0
2.7061857419559788e-05
4.9956294200072684e-05
4.6315547575798086e-05
1.0195392672578193e-05
4.631554757564575e-05
4.995629420026258e-05
2.7061857419793274e-05
0.0
0.0
1.0195392673802076e-05
1.0195392671352456e-05
0.0
1.8884733943879858e-05
3.583549476368366e-05
3.275759077450171e-05
1.888473394353988e-05
3.583549476349411e-05
3.275759077489008e-05
1.2737737959848683e-15
3.275759077411373e-05
3.5835494763872983e-05
1.888473394421969e-05
0.0
1.888473394387971e-05
3.583549476368344e-05
3.275759077450236e-05
3.5354019295110955e-16
1.537530599435624e-16
4.804456569204287e-16

