# vtk DataFile Version 2.0
mesh vtk view
ASCII
DATASET UNSTRUCTURED_GRID
POINTS 45 double
0.0 0.0 0.0
199.99877088559126 -0.00146999651859041 0.003961324249156359
199.9971990416918 99.99835301212272 0.004030355953314244
0.0 100.0 0.0
0.0 0.0 100.0
200.0028009583082 -0.0016469878772988058 100.00403035595329
200.0012291144087 99.9985300034814 100.00396132424918
0.0 100.0 100.0
50.00030154556491 -0.00023361305459077559 0.000409383171461615
99.99930195405302 0.0001024709281847007 -8.194858319880582e-06
150.00106446354607 0.0004632622147760187 -0.0014138166623565607
200.00201733194993 50.001537346619195 -0.003923309099706154
150.00242574588208 100.00067123282999 -0.0014949311647624646
99.99840926446012 99.99986829869809 8.313902510249473e-05
50.00068717575224 99.99994080334173 0.00034135577640157183
0.0 50.00000000025812 0.0
49.999312824379416 -5.9196658329950145e-05 100.00034135577647
100.00159073570343 -0.0001317013018447666 100.00008313902501
149.99757425419983 0.0006712328299516112 99.99850506883531
199.9979826680501 50.0015373466192 99.9960766909003
149.99893553653587 100.00046326221472 99.99858618333757
100.00069804611053 100.00010247092827 99.99999180514178
49.999698454566726 99.99976638694534 100.00040938317139
0.0 50.00000000025812 100.0
0.0 0.0 50.0
199.99921318270378 0.0015302030279261026 49.99605837489396
200.00078681729624 100.00153020302793 49.99605837489394
0.0 100.0 50.0
49.99952111472541 50.00016817856976 -0.0004302904726660326
100.00113523298843 49.99998608266343 4.525771304334115e-05
149.99825548418076 49.99945772218242 0.0013735866999386853
50.0001867787885 0.00016782562052047918 49.99956880497904
99.99955722626731 -1.76518055953701e-05 50.000035682960295
150.00068041092632 -0.0005357381929286648 50.00139035356203
200.0 49.998491092438215 50.00386870890203
149.99931958915556 99.99946426180708 50.0013903535621
100.00044277389627 99.9999823481944 50.0000356829602
49.99981322134313 100.00016782562052 49.99956880497912
0.0 50.00000000025812 50.0
50.00047888540625 50.00016817856983 99.99956970952734
99.99886476717516 49.999986082663355 100.00004525771304
150.00174451590104 49.99945772218246 100.00137358669994
50.00000000006583 49.99981042946121 50.00048604295828
100.0000000000818 50.0000463499232 49.99988116288382
150.0000000000409 50.00051058553998 49.99869090236768

CELLS 16 144
8 0 8 28 15 24 31 42 38
8 24 31 42 38 4 16 39 23
8 15 28 14 3 38 42 37 27
8 38 42 37 27 23 39 22 7
8 8 9 29 28 31 32 43 42
8 31 32 43 42 16 17 40 39
8 28 29 13 14 42 43 36 37
8 42 43 36 37 39 40 21 22
8 9 10 30 29 32 33 44 43
8 32 33 44 43 17 18 41 40
8 29 30 12 13 43 44 35 36
8 43 44 35 36 40 41 20 21
8 10 1 11 30 33 25 34 44
8 33 25 34 44 18 5 19 41
8 30 11 2 12 44 34 26 35
8 44 34 26 35 41 19 6 20

CELL_TYPES 16
12
12
12
12
12
12
12
12
12
12
12
12
12
12
12
12

POINT_DATA 45
SCALARS MODE1_0.0849_Hz float 1
LOOKUP_TABLE default
0.0
7.334034398570556e-05
8.628393957466434e-05
0.0
0.0
8.628393957440342e-05
7.334034398593693e-05
0.0
9.325882486335333e-06
1.1759571735077363e-05
3.048940005846581e-05
7.786280251833326e-05
4.878983859417421e-05
2.663904053626758e-05
1.2826167226826696e-05
0.0
1.282616722724786e-05
2.6639040536000738e-05
4.878983859337792e-05
7.786280251840651e-05
3.048940005887753e-05
1.1759571735055399e-05
9.325882485969284e-06
0.0
0.0
7.168025305484889e-05
7.168025305526055e-05
0.0
1.1090098701783148e-05
1.8936998664295404e-05
3.809396702936924e-05
8.316332397673603e-06
7.4093245678705265e-06
2.730007040847388e-05
6.920924405709397e-05
2.7300070409569176e-05
7.409324567906248e-06
8.316332396644766e-06
0.0
1.1090098702027394e-05
1.8936998664272724e-05
3.809396702919e-05
8.695062506333245e-06
2.1259358575250717e-06
2.3419094024404243e-05

