# vtk DataFile Version 2.0
mesh vtk view
ASCII
DATASET UNSTRUCTURED_GRID
POINTS 45 double
0.0 0.0 0.0
200.00160054760468 -0.0023030605447490905 -0.000941135929879317
199.99929764890928 99.99773638614333 -0.0008399980106284044
0.0 100.0 0.0
0.0 0.0 100.0
200.00070235109067 -0.0022636138566703864 99.99916000198938
199.9983994523953 99.99769693945527 99.99905886407012
0.0 100.0 100.0
49.999607328120966 -0.0001950604436835054 -3.382666189323664e-05
100.00090899167941 -4.750801431427456e-05 -7.525788677853258e-05
149.9986138594256 0.0008542463798445253 0.0003835616171189461
199.99955039011644 50.00225235702715 0.0008744017302441633
150.000608265395 100.00080789523564 0.00026472126558026767
99.99960111731943 100.00000468277617 5.855481611845614e-05
50.00017231223444 99.99976606675918 -0.0001334931740630652
0.0 50.00000000025812 0.0
49.99982768789721 -0.00023393324080377877 99.99986650682592
100.00039888284412 4.682776140604503e-06 100.00005855481614
149.99939173468695 0.0008078952356630156 100.00026472126557
200.00044960988356 50.002252357027146 100.00087440173024
150.00138614065634 100.00085424637984 100.00038356161713
99.99909100848416 99.99995249198568 99.99992474211321
50.00039267201068 99.99980493955633 99.99996617333812
0.0 50.00000000025812 100.0
0.0 0.0 50.0
199.9988472388858 0.0022418909141222005 50.00087848388314
200.00115276111424 100.00224189091412 50.00087848388315
0.0 100.0 50.0
50.00010673092991 50.00024639730434 9.590035458358542e-05
99.99974698672176 49.99997960977789 -1.0086746055131732e-05
150.00038880644075 49.99920551218255 -0.0003061361102447458
50.000273648542326 0.0002458802700917842 50.00009610195445
99.9993512951293 -2.586155030400411e-05 49.99999204721284
150.0009968659324 -0.0007849066856852865 49.99969012700009
200.0 49.99778930902253 49.9991377672083
149.9990031341495 99.99921509331432 49.99969012700008
100.00064870503428 99.99997413844969 49.999992047212864
49.99972635158931 100.0002458802701 50.00009610195443
0.0 50.00000000025812 50.0
49.999893269201756 50.00024639730432 100.00009590035458
100.00025301344184 49.99997960977791 99.99998991325394
149.99961119364104 49.999205512182535 99.99969386388976
50.00000000006583 49.999722261316215 49.9998916738924
100.0000000000818 50.00006790696443 50.000026485647034
150.0000000000409 50.00074805572219 50.000291763204395

CELLS 16 144
8 0 8 28 15 24 31 42 38
8 24 31 42 38 4 16 39 23
8 15 28 14 3 38 42 37 27
8 38 42 37 27 23 39 22 7
8 8 9 29 28 31 32 43 42
8 31 32 43 42 16 17 40 39
8 28 29 13 14 42 43 36 37
8 42 43 36 37 39 40 21 22
8 9 10 30 29 32 33 44 43
8 32 33 44 43 17 18 41 40
8 29 30 12 13 43 44 35 36
8 43 44 35 36 40 41 20 21
8 10 1 11 30 33 25 34 44
8 33 25 34 44 18 5 19 41
8 30 11 2 12 44 34 26 35
8 44 34 26 35 41 19 6 20

CELL_TYPES 16
12
12
12
12
12
12
12
12
12
12
12
12
12
12
12
12

POINT_DATA 45
SCALARS MODE2_0.0849_Hz float 1
LOOKUP_TABLE default
0.0
8.628393957439664e-05
7.334034398594631e-05
0.0
0.0
7.334034398569789e-05
8.628393957467208e-05
0.0
1.2826167227018275e-05
2.6639040535926036e-05
4.878983859345764e-05
7.168025305509545e-05
3.048940005875272e-05
1.1759571735225399e-05
9.325882486284375e-06
0.0
9.325882486019074e-06
1.1759571734907372e-05
3.048940005859283e-05
7.168025305501584e-05
4.878983859409562e-05
2.663904053634242e-05
1.2826167227055744e-05
0.0
0.0
7.786280251822286e-05
7.78628025185172e-05
0.0
8.316332397321339e-06
7.409324567859287e-06
2.7300070408898234e-05
1.1090098701854555e-05
1.8936998664075196e-05
3.809396702902252e-05
6.920924405709452e-05
3.8093967029537436e-05
1.893699866449249e-05
1.1090098701955003e-05
0.0
8.3163323969956e-06
7.409324567917366e-06
2.7300070409147577e-05
8.695062506332384e-06
2.1259358575238833e-06
2.3419094024405443e-05

