# vtk DataFile Version 2.0
mesh vtk view
ASCII
DATASET UNSTRUCTURED_GRID
POINTS 45 double
0.0 0.0 0.0
200.0008779388634 0.0010499975132788645 -0.002829517320825971
200.00200068450587 100.00117641991234 -0.0028788256809387457
0.0 100.0 0.0
0.0 0.0 100.0
199.99799931549413 0.00117641991235629 99.99712117431908
199.99912206113663 100.00104999751328 99.99717048267915
0.0 100.0 100.0
49.99978460992742 0.0001668664675648397 -0.00029241655104401076
100.00049860364334 -7.319352013192908e-05 5.85347022848613e-06
149.999239668427 -0.0003309015819828705 0.0010098690445404007
199.9985590486072 49.99890189496976 0.002802363642647253
149.99826732497903 99.99952054797858 0.001067807974830332
100.00113624055625 100.00009407235851 -5.9385017930353384e-05
49.99950916078601 100.00004228332733 -0.00024382555457255135
0.0 50.00000000025812 0.0
50.00049083934562 4.228332737853582e-05 99.99975617444538
99.99886375960733 9.407235846054757e-05 99.99994061498214
150.0017326751029 -0.00047945202139400804 100.00106780797478
200.0014409513928 49.998901894969755 100.00280236364264
150.0007603316549 99.99966909841805 100.0010098690446
99.99950139652024 99.9999268064798 100.00000585347016
50.00021539020423 100.00016686646761 99.99970758344901
0.0 50.00000000025812 100.0
0.0 0.0 50.0
200.00056201235444 -0.0010930021628043592 50.002815446504314
199.99943798764554 99.9989069978372 50.00281544650433
0.0 100.0 50.0
50.000342061023275 49.99987987270649 0.0003073503376185948
99.9991891194342 50.00000994102481 -3.232693788810082e-05
150.00124608279813 50.000387341182204 -0.000981133357099061
49.999866586196276 -0.00011987544322891372 50.00030799644354
100.00031626634741 1.2608432568121502e-05 49.999974512171214
149.99951399172681 0.0003826701378061892 49.999006890312835
200.0 50.00107779081332 49.99723663649855
150.00048600835513 100.0003826701378 49.999006890312785
99.99968373381614 100.00001260843257 49.999974512171285
50.000133413935366 99.99988012455677 50.00030799644349
0.0 50.00000000025812 50.0
49.99965793910839 49.999879872706444 100.00030735033762
100.00081088072939 50.000009941024864 99.99996767306212
149.99875391728366 50.00038734118217 99.9990188666429
50.00000000006583 50.00013540778402 49.99965282645837
100.0000000000818 49.99996689298211 50.00008488365442
150.0000000000409 49.9996352959268 50.00093506973737

CELLS 16 144
8 0 8 28 15 24 31 42 38
8 24 31 42 38 4 16 39 23
8 15 28 14 3 38 42 37 27
8 38 42 37 27 23 39 22 7
8 8 9 29 28 31 32 43 42
8 31 32 43 42 16 17 40 39
8 28 29 13 14 42 43 36 37
8 42 43 36 37 39 40 21 22
8 9 10 30 29 32 33 44 43
8 32 33 44 43 17 18 41 40
8 29 30 12 13 43 44 35 36
8 43 44 35 36 40 41 20 21
8 10 1 11 30 33 25 34 44
8 33 25 34 44 18 5 19 41
8 30 11 2 12 44 34 26 35
8 44 34 26 35 41 19 6 20

CELL_TYPES 16
12
12
12
12
12
12
12
12
12
12
12
12
12
12
12
12

POINT_DATA 45
SCALARS MODE1_0.0849_Hz float 1
LOOKUP_TABLE default
0.0
7.334034398570556e-05
8.628393957466434e-05
0.0
0.0
8.628393957440342e-05
7.334034398593693e-05
0.0
9.325882486335333e-06
1.1759571735077363e-05
3.048940005846581e-05
7.786280251833326e-05
4.878983859417421e-05
2.663904053626758e-05
1.2826167226826696e-05
0.0
1.282616722724786e-05
2.6639040536000738e-05
4.878983859337792e-05
7.786280251840651e-05
3.048940005887753e-05
1.1759571735055399e-05
9.325882485969284e-06
0.0
0.0
7.168025305484889e-05
7.168025305526055e-05
0.0
1.1090098701783148e-05
1.8936998664295404e-05
3.809396702936924e-05
8.316332397673603e-06
7.4093245678705265e-06
2.730007040847388e-05
6.920924405709397e-05
2.7300070409569176e-05
7.409324567906248e-06
8.316332396644766e-06
0.0
1.1090098702027394e-05
1.8936998664272724e-05
3.809396702919e-05
8.695062506333245e-06
2.1259358575250717e-06
2.3419094024404243e-05

