# vtk DataFile Version 2.0
mesh vtk view
ASCII
DATASET UNSTRUCTURED_GRID
POINTS 89 double
0.0 0.0 0.0
5.0 0.0 0.0
-5.209430659991933e-14 1.9999999999999971 -0.47971501119220755
4.999999999999949 2.0 0.4796692688378102
-8.927208026029609e-14 3.9999999999999956 -1.1840809235489003
4.999999999999913 4.0 1.1840937755735184
-1.112367596115306e-13 5.9999999999999964 -1.6384316749919494
4.999999999999887 6.0 1.6386414497090267
-1.1135920196257788e-15 0.19999999999962803 -0.007838994392973562
-4.15595958547359e-15 0.39999999999911323 -0.02999836558844256
-8.693711670600895e-15 0.5999999999985292 -0.06444244615162228
-1.4333164898847776e-14 0.799999999997945 -0.10913786115719405
-2.0701302816003973e-14 0.9999999999973826 -0.1620558196569146
-2.7494976362548956e-14 1.1999999999978883 -0.2211751003232996
-3.432592366002168e-14 1.399999999998416 -0.28448559396468737
-4.088012657655548e-14 1.5999999999989425 -0.34999226613525003
-4.689692114555904e-14 1.7999999999994694 -0.4157194038183497
4.999999999999999 0.1999999999996283 0.007837840826751432
4.9999999999999964 0.39999999999911384 0.02999410403037224
4.999999999999992 0.5999999999985302 0.06443362718193692
4.999999999999987 0.7999999999979464 0.10912350811284537
4.9999999999999805 0.9999999999973843 0.16203539608332307
4.999999999999974 1.1999999999978903 0.2211484770602228
4.999999999999967 1.3999999999984183 0.2844530158292323
4.999999999999961 1.5999999999989452 0.34995431819262296
4.999999999999955 1.7999999999994722 0.41567697725625247
0.49999999999954203 2.0000000000000053 -0.3850904085197014
0.9999999999983596 2.000000000000008 -0.2904963467923733
1.4999999999968996 2.0000000000000067 -0.1948867853481726
1.9999999999954556 2.0000000000000027 -0.09798353187720815
2.4999999999961466 1.999999999999997 -2.3254508786026078e-05
2.9999999999969083 1.9999999999999911 0.09793717593283653
3.499999999997667 1.9999999999999871 0.19484082718844922
3.9999999999984284 1.9999999999999867 0.2904508472000523
4.499999999999189 1.999999999999991 0.38504512282726416
-5.6813148022276745e-14 2.199999999999997 -0.5454322994606225
-6.15854890995372e-14 2.399999999999997 -0.6164694892296811
-6.608740421398595e-14 2.5999999999999965 -0.6911410141503151
-7.053505823451284e-14 2.7999999999999963 -0.767803136198942
-7.465748871686616e-14 2.9999999999999964 -0.8448589685981919
-7.845182621074078e-14 3.199999999999996 -0.920763634450532
-8.185986138333111e-14 3.399999999999996 -0.9940294530679028
-8.481345616199427e-14 3.599999999999996 -1.0632310495024555
-8.733182284953839e-14 3.7999999999999954 -1.127010286654517
4.999999999999945 2.2 0.5453846344316323
4.9999999999999405 2.4000000000000004 0.6164214634527917
4.999999999999936 2.6000000000000005 0.6910943156267244
4.9999999999999325 2.8000000000000003 0.7677595426087399
4.999999999999928 3.0000000000000004 0.8448203109964669
4.9999999999999245 3.2000000000000006 0.9207317611748344
4.999999999999921 3.4000000000000004 0.9940061939803218
4.999999999999918 3.6000000000000005 1.0632181806907448
4.999999999999916 3.8000000000000003 1.1270094957154726
0.499999999999505 3.9999999999999973 -0.9800344212196307
0.9999999999983228 3.9999999999999956 -0.7565114518952984
1.499999999996863 3.999999999999992 -0.5156608515867962
1.9999999999954194 3.9999999999999885 -0.26162461702082584
2.499999999996111 3.9999999999999853 9.726298913658204e-05
2.9999999999968723 3.9999999999999836 0.26181139665638653
3.4999999999976317 3.9999999999999845 0.5158246460187781
3.9999999999983924 3.999999999999988 0.756637763357171
4.499999999999153 3.9999999999999933 0.9801099198483552
-9.114891047047803e-14 4.199999999999996 -1.2378167067651427
-9.322769771121458e-14 4.399999999999996 -1.2917511853741983
-9.551091675805012e-14 4.599999999999995 -1.344957775274488
-9.78658743774393e-14 4.799999999999995 -1.3965973485848329
-1.0045130533098934e-13 4.999999999999996 -1.4459218193214929
-1.0297643014325759e-13 5.199999999999996 -1.4922776247966996
-1.0540401382317495e-13 5.399999999999996 -1.5351090521578536
-1.0768523249494306e-13 5.599999999999995 -1.5739613658832192
-1.0957543628831671e-13 5.799999999999995 -1.6084836986711533
4.999999999999909 4.2 1.2378446308152213
4.999999999999908 4.4 1.2917955229280704
4.999999999999905 4.6 1.3450197787289107
4.999999999999902 4.8 1.3966781632056318
4.9999999999999 5.0 1.4460224663882586
4.999999999999897 5.2 1.492398986018778
4.999999999999894 5.4 1.5352518554304349
4.999999999999892 5.6 1.5741261724429592
4.999999999999889 5.8 1.608670891700339
0.4999999999994831 5.999999999999998 -1.3644520679155516
0.9999999999983005 5.999999999999999 -1.05794978871898
1.49999999999684 5.999999999999998 -0.7232501086317117
1.999999999995396 5.9999999999999964 -0.3674639032631579
2.4999999999960867 5.999999999999994 0.00039441657064309937
2.9999999999968474 5.999999999999992 0.36822760130124665
3.4999999999976064 5.999999999999991 0.7239394334231463
3.999999999998367 5.999999999999992 1.058518532281747
4.499999999999127 5.999999999999996 1.3648588551676095

CELLS 90 270
2 0 8
2 8 9
2 9 10
2 10 11
2 11 12
2 12 13
2 13 14
2 14 15
2 15 16
2 16 2
2 1 17
2 17 18
2 18 19
2 19 20
2 20 21
2 21 22
2 22 23
2 23 24
2 24 25
2 25 3
2 2 26
2 26 27
2 27 28
2 28 29
2 29 30
2 30 31
2 31 32
2 32 33
2 33 34
2 34 3
2 2 35
2 35 36
2 36 37
2 37 38
2 38 39
2 39 40
2 40 41
2 41 42
2 42 43
2 43 4
2 3 44
2 44 45
2 45 46
2 46 47
2 47 48
2 48 49
2 49 50
2 50 51
2 51 52
2 52 5
2 4 53
2 53 54
2 54 55
2 55 56
2 56 57
2 57 58
2 58 59
2 59 60
2 60 61
2 61 5
2 4 62
2 62 63
2 63 64
2 64 65
2 65 66
2 66 67
2 67 68
2 68 69
2 69 70
2 70 6
2 5 71
2 71 72
2 72 73
2 73 74
2 74 75
2 75 76
2 76 77
2 77 78
2 78 79
2 79 7
2 6 80
2 80 81
2 81 82
2 82 83
2 83 84
2 84 85
2 85 86
2 86 87
2 87 88
2 88 7

CELL_TYPES 90
3
3
3
3
3
3
3
3
3
3
3
3
3
3
3
3
3
3
3
3
3
3
3
3
3
3
3
3
3
3
3
3
3
3
3
3
3
3
3
3
3
3
3
3
3
3
3
3
3
3
3
3
3
3
3
3
3
3
3
3
3
3
3
3
3
3
3
3
3
3
3
3
3
3
3
3
3
3
3
3
3
3
3
3
3
3
3
3
3
3

POINT_DATA 89
SCALARS MODE2_15.7142_Hz float 1
LOOKUP_TABLE default
0.0
0.0
0.011193350261151508
0.011192282939548904
0.02762855488280767
0.027628854763382095
0.038230072416478814
0.03823496715987729
0.0001829098691693831
0.0006999618637303263
0.0015036570768711865
0.002546550093667861
0.00378130245866134
0.00516075234087699
0.006637997192509372
0.0081664862098225
0.009700119422428159
0.00018288295262420005
0.0006998624273753522
0.0015034513009118612
0.002546215189299725
0.0037808259086108712
0.0051601311314051984
0.0066372370360154205
0.008165600757827868
0.009699129469312557
0.008985442865459698
0.006778248091822043
0.004547358324790694
0.00228628241046819
5.426052050072751e-07
0.0022852007717661855
0.004546285967730481
0.006777186434667887
0.00898438619930283
0.012726753654081192
0.014384288082025892
0.016126623663507353
0.017915406511308647
0.01971337593395781
0.021484484803845745
0.023194020571584397
0.024808724488390627
0.026296906688605397
0.01272564147007142
0.014383167480565139
0.016125534031290235
0.017914389327537264
0.019712473923250894
0.021483741094079467
0.02319347785954084
0.024808424216117377
0.026296888233361022
0.022867469828458047
0.017651933877556963
0.012032086537025245
0.006104574397152602
2.2694697465202474e-06
0.0061089325886490185
0.012035908407104822
0.017654881145000655
0.022869231463128286
0.028882389824519992
0.030140860992064627
0.03138234808973805
0.03258727146697943
0.03373817578416816
0.03481981124525632
0.03581921121701658
0.03672576520394178
0.037531286302326904
0.028883041385688493
0.030141895534988306
0.031383794837007914
0.032589157141464736
0.03374052421572603
0.03482264300710482
0.03582254329337681
0.03672961069033571
0.03753565413967457
0.03183721491802954
0.024685495070109528
0.016875835868073272
0.008574157742807018
9.20305331500565e-06
0.008591977363695755
0.016891920113206744
0.024698765753240762
0.03184670662057755

