# vtk DataFile Version 2.0
mesh vtk view
ASCII
DATASET UNSTRUCTURED_GRID
POINTS 89 double
0.0 0.0 0.0
5.0 0.0 0.0
-0.36094883983796533 1.9854720793635228 3.7823024396912545e-14
4.639051161215999 2.014528079232709 -3.1545412710499585e-14
-0.9025234251938982 3.977029191042346 1.3696472770243648e-13
4.097476400273215 4.0229716689569175 -1.001677946397867e-13
-1.2812860073825778 5.974045409358654 2.1630619752916059e-13
3.718714113707316 6.025955660474633 -1.1980232510059919e-13
-0.006096057055661161 0.19854658042598694 4.924447539490054e-16
-0.02327696283024204 0.3970932128208463 1.8066643697282383e-15
-0.04988210604404106 0.5956399299884374 3.8079801743641726e-15
-0.08425173930722342 0.7941867647318939 6.321852758646892e-15
-0.1247278327341876 0.9927337498540607 9.429215777807864e-15
-0.16965518191022494 1.1912809181594208 1.368555827787075e-14
-0.21738271591078556 1.3898283024521643 1.847309449617364e-14
-0.26626495117187965 1.588375935540663 2.3914253774393682e-14
-0.31466353714259837 1.7869238502380003 3.078263145266145e-14
4.993903942816705 0.20145334520883537 -4.548134204014013e-16
4.976723035935343 0.40290667178461875 -1.7025173238807014e-15
4.950117891023206 0.6043599419310011 -3.628277637987336e-15
4.915748255857385 0.8058131178543368 -6.227544275841426e-15
4.875272160710211 1.0072661617658358 -9.378184875949544e-15
4.830344810382393 1.2087190358852198 -1.3110133617276616e-14
4.782617276183558 1.41017170244046 -1.710893995058903e-14
4.733735042061669 1.6116241236740125 -2.16211911907347e-14
4.685336458950363 1.8130762618450462 -2.636248419283492e-14
0.13880424949961795 2.066860125031649 9.419022832332101e-14
0.6386121690153586 2.096103795163212 1.6678613444890405e-13
1.1384749478679241 2.086049961137619 2.0115945597771777e-13
1.638392606888032 2.049660081152483 2.0425875104774515e-13
2.138365158577312 2.00000010018403 1.7605352168446925e-13
2.6383926071004042 1.950340117292415 1.3090157134028978e-13
3.1384749482905 1.9139502316654833 8.807779433130478e-14
3.6386121696480602 1.9038963886607538 4.2134255094865424e-14
4.138804250342627 1.933140047102869 -3.703874968598257e-15
-0.4087193809444474 2.1846258542078227 4.634307112182843e-14
-0.46168417126190314 2.383780010283904 5.564208631653632e-14
-0.518397118848649 2.5829345659622103 6.562279209784784e-14
-0.57742729502415 2.7820895396262912 7.615842968657483e-14
-0.637360776657053 2.9812449496751254 8.758562007187428e-14
-0.6968025645393546 3.180400814525549 9.826998719811842e-14
-0.7543785315529069 3.379557152614732 1.093636525767874e-13
-0.8087373549546495 3.578713982402632 1.1896440823188746e-13
-0.8585523877904658 3.7778713223743527 1.275349958698134e-13
4.591280626982346 2.2153743553467824 -3.753871050802637e-14
4.538315843955537 2.416220265847433 -4.448413145672525e-14
4.481602901886715 2.6170657880143673 -5.210877043042498e-14
4.422572727264752 2.8179108991595365 -6.003604581332713e-14
4.362639241028303 3.018755576630456 -6.79802938095276e-14
4.303197440191566 3.219599797813631 -7.532943768670128e-14
4.245621449677531 3.4204435401380295 -8.274479661225544e-14
4.1912625900322125 3.6212867810785347 -8.947920734655615e-14
4.1414475060099125 3.8221294981592933 -9.538332627373444e-14
-0.4031408231263976 4.051549477214765 6.919498029792567e-14
0.09637887737757378 4.079601230890683 -1.893923603157758e-14
0.5960357492288608 4.072643392768354 -7.776415514602314e-14
1.095829844515239 4.042229289340557 -1.0646444891540806e-13
1.595761194495543 4.000000193968066 -1.184167244938535e-13
2.0958298095889076 3.9577711169407657 -1.1903197970463518e-13
2.5960356793793626 3.927357068800566 -1.0886844487888553e-13
3.0963787726155 3.920399323688409 -9.934173998635099e-14
3.596859037215134 3.948451209475656 -9.452040742631167e-14
-0.9440694971886562 4.176728187498264 1.473919834253885e-13
-0.986885844208893 4.3764277511132 1.5695599920287666e-13
-1.0301308057154461 4.57612788791906 1.6621225268450698e-13
-1.0729950522030913 4.775828603982446 1.7526335880858032e-13
-1.1147029930214662 4.975529905406617 1.8363638441137638e-13
-1.1545141720884218 5.175231798333438 1.9140706021905073e-13
-1.1917246261055752 5.374934288945269 1.986205871463617e-13
-1.225668181036316 5.5746373834667615 2.0532587516680946e-13
-1.2557176638011973 5.774341088166531 2.1173170227407687e-13
4.055930239647836 4.2232727045885845 -1.0369356504600706e-13
4.013113791982147 4.4235731768672935 -1.0630978685584048e-13
3.969868732200222 4.623873077229558 -1.0873423472242654e-13
3.92700440417798 4.824172397174405 -1.1075310839361822e-13
3.885296412919175 5.02447112826568 -1.1265849349957532e-13
3.8454852288394936 5.224769262134356 -1.1438465065089769e-13
3.8082748295494806 5.425066790480778 -1.1646255522243653e-13
3.7743314033764888 5.625363705076802 -1.1793978009764918e-13
3.7442821376711963 5.825659997767825 -1.1885702801655872e-13
-0.7821624721200322 6.01720582052614 1.6073501454029533e-13
-0.28284430223792156 6.035122152519625 9.678986827757951e-14
0.21666860576731706 6.034033476147104 3.1583446846251856e-14
0.7163763258374385 6.020219748977096 -2.1140444538232974e-14
1.216278902343192 6.0000017615801085 -4.946033448795674e-14
1.716376350071578 5.979783671767385 -6.441816429209295e-14
2.216668654229783 5.9659696395822905 -7.60670690832599e-14
2.7171557704455003 5.9648804621613705 -8.737410179247415e-14
3.2178376247735905 5.982796107583926 -1.0308178283142463e-13

CELLS 90 270
2 0 8
2 8 9
2 9 10
2 10 11
2 11 12
2 12 13
2 13 14
2 14 15
2 15 16
2 16 2
2 1 17
2 17 18
2 18 19
2 19 20
2 20 21
2 21 22
2 22 23
2 23 24
2 24 25
2 25 3
2 2 26
2 26 27
2 27 28
2 28 29
2 29 30
2 30 31
2 31 32
2 32 33
2 33 34
2 34 3
2 2 35
2 35 36
2 36 37
2 37 38
2 38 39
2 39 40
2 40 41
2 41 42
2 42 43
2 43 4
2 3 44
2 44 45
2 45 46
2 46 47
2 47 48
2 48 49
2 49 50
2 50 51
2 51 52
2 52 5
2 4 53
2 53 54
2 54 55
2 55 56
2 56 57
2 57 58
2 58 59
2 59 60
2 60 61
2 61 5
2 4 62
2 62 63
2 63 64
2 64 65
2 65 66
2 66 67
2 67 68
2 68 69
2 69 70
2 70 6
2 5 71
2 71 72
2 72 73
2 73 74
2 74 75
2 75 76
2 76 77
2 77 78
2 78 79
2 79 7
2 6 80
2 80 81
2 81 82
2 82 83
2 83 84
2 84 85
2 85 86
2 86 87
2 87 88
2 88 7

CELL_TYPES 90
3
3
3
3
3
3
3
3
3
3
3
3
3
3
3
3
3
3
3
3
3
3
3
3
3
3
3
3
3
3
3
3
3
3
3
3
3
3
3
3
3
3
3
3
3
3
3
3
3
3
3
3
3
3
3
3
3
3
3
3
3
3
3
3
3
3
3
3
3
3
3
3
3
3
3
3
3
3
3
3
3
3
3
3
3
3
3
3
3
3

POINT_DATA 89
SCALARS MODE3_19.7959_Hz float 1
LOOKUP_TABLE default
0.0
0.0
0.00842895877809963
0.008428958902352856
0.02106569970441862
0.021065704286109887
0.029902806668902354
0.02990280434962054
0.0001462282334823463
0.0005473476866237185
0.001168353547044403
0.001970547906736685
0.0029152505168432374
0.003963845290340309
0.005077813092024696
0.006218766411933759
0.0073484860403609025
0.00014622783396988658
0.0005473473815682226
0.0011683533549960027
0.0019705478307199585
0.00291525054962212
0.003963845414911769
0.005077813281627815
0.006218766629930736
0.0073484862400344094
0.008571075181112836
0.008725453243587611
0.008671244302165516
0.008516699602084227
0.00843814629977435
0.008516698967225633
0.008671243250905862
0.008725452127001534
0.008571074430703311
0.00954353005921587
0.010779276795442492
0.012102485186295161
0.013479783305155556
0.014878188758173245
0.01626515674651195
0.01760862764069545
0.01887707339262975
0.020039542068053112
0.009543530058183902
0.01077927666680932
0.012102484974485603
0.013479783102751934
0.014878188706908527
0.016265157037895515
0.01760862851637113
0.018877075144551638
0.020039545038538092
0.02110758527557035
0.02116614355550101
0.02116049595874378
0.021120301493016327
0.021098905461682457
0.021120301864835923
0.021160496720647588
0.02116614485500447
0.021107587615908564
0.022034979980370288
0.023033904165733254
0.02404283870657604
0.025042903027371482
0.02601600273781094
0.026944862514024955
0.027813058052832434
0.02860504653685194
0.029306195081890085
0.02203498663195085
0.02303391316924055
0.02404285000739862
0.02504291623471192
0.02601601712520432
0.02694487701989406
0.02781307128105337
0.028605056757295605
0.029306200230894676
0.029919817960940315
0.029944250125026602
0.029954927159314925
0.029954934703888506
0.02995349227859837
0.02995493288150151
0.02995492410171848
0.029944246760073127
0.029919815096645035

