# vtk DataFile Version 2.0
mesh vtk view
ASCII
DATASET UNSTRUCTURED_GRID
POINTS 89 double
0.0 0.0 0.0
5.0 0.0 0.0
-1.723826507733129e-16 2.0 -0.228332224629921
5.0 2.0 -0.22832526311460075
-2.1315641450653026e-16 4.0 -0.7691788017447088
5.0 4.0 -0.7691580672862468
-2.1535684128272352e-16 6.0 -1.4341778103194969
5.0 6.0 -1.4341432338767197
-4.214402372476914e-18 0.1999999999996283 -0.002616580563121793
-1.5425665621903717e-17 0.3999999999991138 -0.010318061022176564
-3.2205121771141255e-17 0.59999999999853 -0.022882067043599345
-5.234461939163848e-17 0.7999999999979462 -0.040086279491567976
-7.439896786376638e-17 0.9999999999973842 -0.06170849315346868
-9.743438348819756e-17 1.19999999999789 -0.08752669726832689
-1.2021542043022607e-16 1.399999999998418 -0.11731917681356463
-1.4173098901663053e-16 1.599999999998945 -0.15086463350835805
-1.5888920041528673e-16 1.799999999999472 -0.187942325490818
5.0 0.1999999999996283 -0.002616477161968086
5.0 0.3999999999991138 -0.01031766237110834
5.0 0.59999999999853 -0.022881203761622587
5.0 0.7999999999979462 -0.04008480471418356
5.0 0.9999999999973842 -0.06170628257924841
5.0 1.19999999999789 -0.08752364920264794
5.0 1.399999999998418 -0.11731521220891737
5.0 1.599999999998945 -0.1508596960007512
5.0 1.799999999999472 -0.18793638143190805
0.4999999999995942 2.0 -0.23044265113500223
0.9999999999984118 2.0 -0.23228421387693188
1.4999999999969518 2.0 -0.23370685771982125
1.9999999999955078 2.0 -0.23460314827267595
2.499999999996199 2.0 -0.2349085297157074
2.99999999999696 2.0 -0.23460148766250263
3.499999999997719 2.0 -0.233703604220466
3.99999999999848 2.0 -0.23227950196503186
4.49999999999924 2.0 -0.23043668144981294
-1.858608612915391e-16 2.2 -0.271817509936584
-1.947722696215076e-16 2.4 -0.3181915423778018
-2.045209990362212e-16 2.6 -0.3672511969893916
-2.089030407238882e-16 2.8 -0.4187948475712337
-2.128909780790066e-16 3.0 -0.4726225969213332
-2.171357674173236e-16 3.2 -0.5285365187436838
-2.1785159957378367e-16 3.4 -0.5863409102910215
-2.154833302661533e-16 3.6 -0.645842554812832
-2.1557425745451768e-16 3.8 -0.7068509928894413
5.0 2.2 -0.27180945658888406
5.0 2.4 -0.31818226208513484
5.0 2.6 -0.36724058151306493
5.0 2.8 -0.41878281555700264
5.0 3.0 -0.47260909390372124
5.0 3.2 -0.5285215171436799
5.0 3.4 -0.5863244094069064
5.0 3.6 -0.6458245808039977
5.0 3.8 -0.7068315987532051
0.49999999999959416 4.0 -0.773727458777987
0.9999999999984118 4.0 -0.7779344552250961
1.4999999999969518 4.0 -0.781297996786502
1.9999999999955078 4.0 -0.7834590458366161
2.499999999996199 4.0 -0.7842019277867776
2.99999999999696 4.0 -0.7834547219861008
3.499999999997719 4.0 -0.7812893950120171
3.99999999999848 4.0 -0.777921664870819
4.49999999999924 4.0 -0.7737106110297267
-2.0949619081622175e-16 4.2 -0.8326495589723457
-2.097521575611134e-16 4.4 -0.897120947018094
-2.0603208841388504e-16 4.6 -0.9624621292835934
-2.0532018950858027e-16 4.8 -1.0285464856036766
-2.0601251112428124e-16 5.0 -1.095251919085469
-2.068207375549212e-16 5.2 -1.1624611664456657
-2.0854094592812654e-16 5.4 -1.2300621112727206
-2.107718400913899e-16 5.6 -1.2979480996634256
-2.123784165870629e-16 5.8 -1.3660182577074986
5.0 4.2 -0.8326274805796168
5.0 4.4 -0.8970974390922998
5.0 4.6 -0.9624371351053147
5.0 4.8 -1.0285199772640183
5.0 5.0 -1.0952238974102557
5.0 5.2 -1.1624316609125651
5.0 5.4 -1.2300311799213022
5.0 5.6 -1.2979158289982766
5.0 5.8 -1.3659847625946702
0.49999999999959416 6.0 -1.4407511778372104
0.9999999999984118 6.0 -1.4471083072524866
1.4999999999969518 6.0 -1.4523161352752378
1.9999999999955078 6.0 -1.4557071664335401
2.499999999996199 6.0 -1.4568804085022231
2.99999999999696 6.0 -1.4557019836408682
3.4999999999977187 6.0 -1.4523053386231077
3.9999999999984794 6.0 -1.4470910316172416
4.49999999999924 6.0 -1.4407261220302556

CELLS 90 270
2 0 8
2 8 9
2 9 10
2 10 11
2 11 12
2 12 13
2 13 14
2 14 15
2 15 16
2 16 2
2 1 17
2 17 18
2 18 19
2 19 20
2 20 21
2 21 22
2 22 23
2 23 24
2 24 25
2 25 3
2 2 26
2 26 27
2 27 28
2 28 29
2 29 30
2 30 31
2 31 32
2 32 33
2 33 34
2 34 3
2 2 35
2 35 36
2 36 37
2 37 38
2 38 39
2 39 40
2 40 41
2 41 42
2 42 43
2 43 4
2 3 44
2 44 45
2 45 46
2 46 47
2 47 48
2 48 49
2 49 50
2 50 51
2 51 52
2 52 5
2 4 53
2 53 54
2 54 55
2 55 56
2 56 57
2 57 58
2 58 59
2 59 60
2 60 61
2 61 5
2 4 62
2 62 63
2 63 64
2 64 65
2 65 66
2 66 67
2 67 68
2 68 69
2 69 70
2 70 6
2 5 71
2 71 72
2 72 73
2 73 74
2 74 75
2 75 76
2 76 77
2 77 78
2 78 79
2 79 7
2 6 80
2 80 81
2 81 82
2 82 83
2 83 84
2 84 85
2 85 86
2 86 87
2 87 88
2 88 7

CELL_TYPES 90
3
3
3
3
3
3
3
3
3
3
3
3
3
3
3
3
3
3
3
3
3
3
3
3
3
3
3
3
3
3
3
3
3
3
3
3
3
3
3
3
3
3
3
3
3
3
3
3
3
3
3
3
3
3
3
3
3
3
3
3
3
3
3
3
3
3
3
3
3
3
3
3
3
3
3
3
3
3
3
3
3
3
3
3
3
3
3
3
3
3

POINT_DATA 89
SCALARS MODE1_4.1397_Hz float 1
LOOKUP_TABLE default
0.0
0.0
0.00532775190803149
0.005327589472674017
0.0179475053740432
0.017947021570012423
0.03346414890745492
0.033463342123790124
6.105354647284183e-05
0.00024075475718411983
0.0005339148976839847
0.0009353465214699194
0.0014398648402476023
0.002042289602927627
0.0027374474589831744
0.0035201747818616874
0.004385320928119086
6.105113377925533e-05
0.00024074545532586124
0.0005338947544378603
0.0009353121099976163
0.0014398132601824627
0.0020422184813951184
0.002737354951541405
0.003520059573350861
0.004385182233411188
0.005376995193150051
0.005419964990461743
0.005453160013462495
0.005474073459695771
0.0054811990266998385
0.005474034712125061
0.005453084098477539
0.005419855045850743
0.0053768559004956345
0.00634240856518696
0.007424469322148707
0.008569194596419137
0.009771879776662119
0.011027860594831107
0.012332518770685955
0.0136812879067905
0.015069659612299413
0.01649318983408696
0.006342220653740628
0.007424252781986479
0.008568946901971514
0.009771599029663394
0.011027545524420162
0.012332168733352529
0.013680902886161148
0.015069240218759945
0.016492737304241452
0.018053640704819695
0.01815180395525224
0.018230286591685047
0.01828071106952104
0.018298044981691474
0.018280610179675683
0.01823008588361373
0.018151505513652442
0.01805324759069362
0.01942848970935473
0.020932822097088858
0.022457449683283844
0.023999417997419118
0.025555878111994276
0.027124093883732197
0.028701449263030143
0.03028545565881326
0.031873759346508296
0.019427974546857723
0.020932273578820326
0.022456866485790674
0.02399879946949376
0.025555224272905963
0.027123405421293184
0.028700727531497047
0.03028470267662645
0.031872977793875636
0.03361752748286824
0.03376586050255802
0.033887376489755545
0.033966500550115936
0.0339938761983852
0.03396637961828692
0.03388712456787251
0.0337654574044023
0.03361694284737263

