# vtk DataFile Version 2.0
mesh vtk view
ASCII
DATASET UNSTRUCTURED_GRID
POINTS 89 double
0.0 0.0 0.0
5.0 0.0 0.0
0.36094883983796533 2.0145279206364775 -3.7823024396912545e-14
5.360948838784001 1.9854719207672906 3.1545412710499585e-14
0.9025234251938982 4.022970808957655 -1.3696472770243648e-13
5.902523599726785 3.977028331043082 1.001677946397867e-13
1.2812860073825778 6.025954590641346 -2.1630619752916059e-13
6.281285886292684 5.974044339525367 1.1980232510059919e-13
0.006096057055661161 0.20145341957326968 -4.924447539490054e-16
0.02327696283024204 0.40290678717738126 -1.8066643697282383e-15
0.04988210604404106 0.6043600700086227 -3.8079801743641726e-15
0.08425173930722342 0.8058132352639986 -6.321852758646892e-15
0.1247278327341876 1.0072662501407077 -9.429215777807864e-15
0.16965518191022494 1.2087190818363593 -1.368555827787075e-14
0.21738271591078556 1.4101716975446719 -1.847309449617364e-14
0.26626495117187965 1.6116240644572268 -2.3914253774393682e-14
0.31466353714259837 1.8130761497609438 -3.078263145266145e-14
5.006096057183295 0.19854665479042125 4.548134204014013e-16
5.023276964064657 0.3970933282136088 1.7025173238807014e-15
5.049882108976794 0.595640058066059 3.628277637987336e-15
5.084251744142615 0.7941868821415556 6.227544275841426e-15
5.124727839289789 0.9927338382289325 9.378184875949544e-15
5.169655189617607 1.1912809641105604 1.3110133617276616e-14
5.217382723816442 1.389828297556376 1.710893995058903e-14
5.266264957938331 1.5883758763238773 2.16211911907347e-14
5.314663541049637 1.7869237381538978 2.636248419283492e-14
0.8611957504995709 1.933139874968351 -9.419022832332101e-14
1.3613878309814655 1.9038962048367882 -1.6678613444890405e-13
1.8615250521259799 1.9139500388623811 -2.0115945597771777e-13
2.361607393102984 1.9503399188475168 -2.0425875104774515e-13
2.861634841415086 1.99999989981597 -1.7605352168446925e-13
3.361607392893516 2.049659882707585 -1.3090157134028978e-13
3.8615250517049384 2.086049768334517 -8.807779433130478e-14
4.3613878303488995 2.096103611339246 -4.2134255094865424e-14
4.861195749655852 2.066859952897131 3.703874968598257e-15
0.4087193809444474 2.2153741457921776 -4.634307112182843e-14
0.46168417126190314 2.4162199897160956 -5.564208631653632e-14
0.518397118848649 2.61706543403779 -6.562279209784784e-14
0.57742729502415 2.8179104603737084 -7.615842968657483e-14
0.637360776657053 3.0187550503248746 -8.758562007187428e-14
0.6968025645393546 3.2195991854744515 -9.826998719811842e-14
0.7543785315529069 3.4204428473852677 -1.093636525767874e-13
0.8087373549546495 3.621286017597368 -1.1896440823188746e-13
0.8585523877904658 3.822128677625647 -1.275349958698134e-13
5.408719373017654 2.184625644653218 3.753871050802637e-14
5.461684156044463 2.383779734152567 4.448413145672525e-14
5.518397098113285 2.582934211985633 5.210877043042498e-14
5.577427272735248 2.782089100840463 6.003604581332713e-14
5.637360758971697 2.981244423369544 6.79802938095276e-14
5.696802559808434 3.1804002021863695 7.532943768670128e-14
5.754378550322469 3.3795564598619703 8.274479661225544e-14
5.8087374099677875 3.5787132189214654 8.947920734655615e-14
5.8585524939900875 3.7778705018407064 9.538332627373444e-14
1.4031408231255864 3.9484505227852345 -6.919498029792567e-14
1.9036211226192503 3.9203987691093176 1.893923603157758e-14
2.403964250765043 3.9273566072316464 7.776415514602314e-14
2.904170155475777 3.9577707106594433 1.0646444891540806e-13
3.4042388054968553 3.999999806031934 1.184167244938535e-13
3.904170190405013 4.042228883059234 1.1903197970463518e-13
4.403964320616075 4.072642931199434 1.0886844487888553e-13
4.90362122738146 4.079600676311591 9.934173998635099e-14
5.403140962783346 4.051548790524344 9.452040742631167e-14
0.9440694971886562 4.2232718125017366 -1.473919834253885e-13
0.986885844208893 4.423572248886801 -1.5695599920287666e-13
1.0301308057154461 4.62387211208094 -1.6621225268450698e-13
1.0729950522030913 4.824171396017554 -1.7526335880858032e-13
1.1147029930214662 5.024470094593383 -1.8363638441137638e-13
1.1545141720884218 5.224768201666563 -1.9140706021905073e-13
1.1917246261055752 5.425065711054732 -1.986205871463617e-13
1.225668181036316 5.625362616533238 -2.0532587516680946e-13
1.2557176638011973 5.825658911833469 -2.1173170227407687e-13
5.944069760352164 4.176727295411416 1.0369356504600706e-13
5.986886208017853 4.376426823132707 1.0630978685584048e-13
6.030131267799778 4.576126922770441 1.0873423472242654e-13
6.07299559582202 4.775827602825594 1.1075310839361822e-13
6.114703587080825 4.97552887173432 1.1265849349957532e-13
6.154514771160507 5.175230737865644 1.1438465065089769e-13
6.191725170450519 5.374933209519223 1.1646255522243653e-13
6.225668596623511 5.574636294923197 1.1793978009764918e-13
6.255717862328804 5.774340002232175 1.1885702801655872e-13
1.7821624721192209 5.98279417947386 -1.6073501454029533e-13
2.2828443022347455 5.964877847480375 -9.678986827757951e-14
2.783331394226587 5.965966523852896 -3.1583446846251856e-14
3.283623674153578 5.979780251022904 2.1140444538232974e-14
3.783721097649206 5.9999982384198915 4.946033448795674e-14
4.283623649922342 6.020216328232615 6.441816429209295e-14
4.783331345765655 6.0340303604177095 7.60670690832599e-14
5.2828442295514595 6.0351195378386295 8.737410179247415e-14
5.782162375224889 6.017203892416074 1.0308178283142463e-13

CELLS 90 270
2 0 8
2 8 9
2 9 10
2 10 11
2 11 12
2 12 13
2 13 14
2 14 15
2 15 16
2 16 2
2 1 17
2 17 18
2 18 19
2 19 20
2 20 21
2 21 22
2 22 23
2 23 24
2 24 25
2 25 3
2 2 26
2 26 27
2 27 28
2 28 29
2 29 30
2 30 31
2 31 32
2 32 33
2 33 34
2 34 3
2 2 35
2 35 36
2 36 37
2 37 38
2 38 39
2 39 40
2 40 41
2 41 42
2 42 43
2 43 4
2 3 44
2 44 45
2 45 46
2 46 47
2 47 48
2 48 49
2 49 50
2 50 51
2 51 52
2 52 5
2 4 53
2 53 54
2 54 55
2 55 56
2 56 57
2 57 58
2 58 59
2 59 60
2 60 61
2 61 5
2 4 62
2 62 63
2 63 64
2 64 65
2 65 66
2 66 67
2 67 68
2 68 69
2 69 70
2 70 6
2 5 71
2 71 72
2 72 73
2 73 74
2 74 75
2 75 76
2 76 77
2 77 78
2 78 79
2 79 7
2 6 80
2 80 81
2 81 82
2 82 83
2 83 84
2 84 85
2 85 86
2 86 87
2 87 88
2 88 7

CELL_TYPES 90
3
3
3
3
3
3
3
3
3
3
3
3
3
3
3
3
3
3
3
3
3
3
3
3
3
3
3
3
3
3
3
3
3
3
3
3
3
3
3
3
3
3
3
3
3
3
3
3
3
3
3
3
3
3
3
3
3
3
3
3
3
3
3
3
3
3
3
3
3
3
3
3
3
3
3
3
3
3
3
3
3
3
3
3
3
3
3
3
3
3

POINT_DATA 89
SCALARS MODE3_19.7959_Hz float 1
LOOKUP_TABLE default
0.0
0.0
0.00842895877809963
0.008428958902352856
0.02106569970441862
0.021065704286109887
0.029902806668902354
0.02990280434962054
0.0001462282334823463
0.0005473476866237185
0.001168353547044403
0.001970547906736685
0.0029152505168432374
0.003963845290340309
0.005077813092024696
0.006218766411933759
0.0073484860403609025
0.00014622783396988658
0.0005473473815682226
0.0011683533549960027
0.0019705478307199585
0.00291525054962212
0.003963845414911769
0.005077813281627815
0.006218766629930736
0.0073484862400344094
0.008571075181112836
0.008725453243587611
0.008671244302165516
0.008516699602084227
0.00843814629977435
0.008516698967225633
0.008671243250905862
0.008725452127001534
0.008571074430703311
0.00954353005921587
0.010779276795442492
0.012102485186295161
0.013479783305155556
0.014878188758173245
0.01626515674651195
0.01760862764069545
0.01887707339262975
0.020039542068053112
0.009543530058183902
0.01077927666680932
0.012102484974485603
0.013479783102751934
0.014878188706908527
0.016265157037895515
0.01760862851637113
0.018877075144551638
0.020039545038538092
0.02110758527557035
0.02116614355550101
0.02116049595874378
0.021120301493016327
0.021098905461682457
0.021120301864835923
0.021160496720647588
0.02116614485500447
0.021107587615908564
0.022034979980370288
0.023033904165733254
0.02404283870657604
0.025042903027371482
0.02601600273781094
0.026944862514024955
0.027813058052832434
0.02860504653685194
0.029306195081890085
0.02203498663195085
0.02303391316924055
0.02404285000739862
0.02504291623471192
0.02601601712520432
0.02694487701989406
0.02781307128105337
0.028605056757295605
0.029306200230894676
0.029919817960940315
0.029944250125026602
0.029954927159314925
0.029954934703888506
0.02995349227859837
0.02995493288150151
0.02995492410171848
0.029944246760073127
0.029919815096645035

