# vtk DataFile Version 2.0
mesh vtk view
ASCII
DATASET UNSTRUCTURED_GRID
POINTS 89 double
0.0 0.0 0.0
5.0 0.0 0.0
-7.293202923988705e-14 1.9999999999999958 -0.6716010156690905
4.99999999999993 2.0 0.6715369763729342
-1.249809123644145e-13 3.999999999999994 -1.6577132929684602
4.999999999999877 4.0 1.6577312858029256
-1.5573146345614283e-13 5.999999999999995 -2.293804344988729
4.999999999999842 6.0 2.294098029592637
-1.5590288274760902e-15 0.19999999999962792 -0.010974592150162986
-5.8183434196630254e-15 0.399999999999113 -0.04199771182381958
-1.2171196338841253e-14 0.5999999999985288 -0.0902194246122712
-2.0066430858386882e-14 0.7999999999979446 -0.15279300562007167
-2.898182394240556e-14 0.9999999999973821 -0.2268781475196804
-3.8492966907568534e-14 1.1999999999978876 -0.3096451404526194
-4.805629312403035e-14 1.3999999999984152 -0.3982798315505623
-5.723217720717766e-14 1.5999999999989416 -0.48998917258935004
-6.565568960378266e-14 1.7999999999994682 -0.5820071653456895
4.999999999999998 0.1999999999996283 0.010972977157452003
4.999999999999995 0.39999999999911384 0.04199174564252113
4.9999999999999885 0.5999999999985302 0.09020707805471168
4.999999999999981 0.7999999999979465 0.1527729113579835
4.9999999999999725 0.9999999999973844 0.22684955451665229
4.999999999999964 1.1999999999978903 0.3096078678843119
4.999999999999955 1.3999999999984183 0.39823422216092524
4.999999999999945 1.5999999999989452 0.4899360454696721
4.999999999999937 1.7999999999994722 0.5819477681587534
0.4999999999995211 2.0000000000000075 -0.539126571927582
0.9999999999983387 2.000000000000011 -0.4066948855093226
1.4999999999968785 2.0000000000000093 -0.27284149948744163
1.9999999999954348 2.0000000000000036 -0.1371769446280914
2.4999999999961258 1.9999999999999956 -3.2556312300436506e-05
2.9999999999968874 1.9999999999999878 0.13711204630597112
3.4999999999976468 1.999999999999982 0.2727771580638289
3.999999999998408 1.9999999999999813 0.4066311860800732
4.499999999999169 1.9999999999999873 0.5390631719581698
-7.953840723118744e-14 2.1999999999999957 -0.7636052192448716
-8.621968473935207e-14 2.3999999999999955 -0.8630572849215535
-9.252236589958034e-14 2.599999999999995 -0.9675974198104411
-9.874908152831796e-14 2.799999999999995 -1.0749243906785189
-1.045204842036126e-13 2.9999999999999947 -1.1828025560374684
-1.0983255669503708e-13 3.199999999999995 -1.2890690882307447
-1.1460380593666355e-13 3.399999999999994 -1.391641234295064
-1.1873883862679197e-13 3.5999999999999943 -1.4885234693034377
-1.2226455198935372e-13 3.799999999999994 -1.5778144013163238
4.999999999999923 2.2000000000000006 0.7635384882042853
4.9999999999999165 2.4000000000000004 0.8629900488339083
4.99999999999991 2.6000000000000005 0.967532041877414
4.999999999999905 2.8000000000000003 1.074863359652236
4.9999999999999 3.0000000000000004 1.1827484353950537
4.999999999999894 3.2000000000000006 1.289024465644768
4.99999999999989 3.4000000000000004 1.3916086715724503
4.999999999999885 3.6000000000000005 1.4885054529670425
4.999999999999881 3.8000000000000003 1.5778132940016614
0.49999999999946926 3.9999999999999964 -1.3720481897074828
0.9999999999982871 3.9999999999999933 -1.0591160326534177
1.4999999999968274 3.9999999999999885 -0.7219251922215146
1.9999999999953841 3.9999999999999836 -0.3662744638291561
2.4999999999960756 3.999999999999979 0.00013616818479121484
2.999999999996837 3.999999999999977 0.3665359553189411
3.4999999999975966 3.999999999999978 0.7221545044262893
3.9999999999983573 3.999999999999983 1.0592928687000394
4.499999999999117 3.9999999999999907 1.372153887787697
-1.2760847465866923e-13 4.199999999999994 -1.7329433894711994
-1.305187767957004e-13 4.399999999999994 -1.8084516595238775
-1.3371528346127015e-13 4.599999999999993 -1.8829408853842828
-1.37012224128415e-13 4.799999999999994 -1.9552362880187657
-1.4063182746338506e-13 4.999999999999994 -2.02429054705009
-1.441670022005606e-13 5.199999999999994 -2.089188674715379
-1.475656193524449e-13 5.399999999999994 -2.149152673020995
-1.5075932549292027e-13 5.599999999999994 -2.203545912236507
-1.534056108036434e-13 5.7999999999999945 -2.251877178139614
4.999999999999874 4.2 1.7329824831413096
4.99999999999987 4.4 1.8085137320992983
4.999999999999867 4.6 1.8830276902204748
4.999999999999862 4.8 1.9553494284878843
4.999999999999859 5.0 2.0244314529435616
4.999999999999855 5.2 2.089358580426289
4.999999999999852 5.4 2.1493525976026087
4.999999999999848 5.6 2.2037766414201423
4.9999999999998455 5.8 2.2521392483804745
0.49999999999943856 5.999999999999998 -1.9102328950817722
0.999999999998256 5.999999999999999 -1.4811297042065716
1.4999999999967955 5.999999999999997 -1.0125501520843962
1.999999999995351 5.999999999999995 -0.5144494645684211
2.4999999999960414 5.999999999999991 0.000552183198900339
2.999999999996802 5.9999999999999885 0.5155186418217452
3.499999999997561 5.999999999999988 1.0135152067924047
3.999999999998322 5.999999999999989 1.4819259451944458
4.499999999999082 5.999999999999994 1.910802397234653

CELLS 90 270
2 0 8
2 8 9
2 9 10
2 10 11
2 11 12
2 12 13
2 13 14
2 14 15
2 15 16
2 16 2
2 1 17
2 17 18
2 18 19
2 19 20
2 20 21
2 21 22
2 22 23
2 23 24
2 24 25
2 25 3
2 2 26
2 26 27
2 27 28
2 28 29
2 29 30
2 30 31
2 31 32
2 32 33
2 33 34
2 34 3
2 2 35
2 35 36
2 36 37
2 37 38
2 38 39
2 39 40
2 40 41
2 41 42
2 42 43
2 43 4
2 3 44
2 44 45
2 45 46
2 46 47
2 47 48
2 48 49
2 49 50
2 50 51
2 51 52
2 52 5
2 4 53
2 53 54
2 54 55
2 55 56
2 56 57
2 57 58
2 58 59
2 59 60
2 60 61
2 61 5
2 4 62
2 62 63
2 63 64
2 64 65
2 65 66
2 66 67
2 67 68
2 68 69
2 69 70
2 70 6
2 5 71
2 71 72
2 72 73
2 73 74
2 74 75
2 75 76
2 76 77
2 77 78
2 78 79
2 79 7
2 6 80
2 80 81
2 81 82
2 82 83
2 83 84
2 84 85
2 85 86
2 86 87
2 87 88
2 88 7

CELL_TYPES 90
3
3
3
3
3
3
3
3
3
3
3
3
3
3
3
3
3
3
3
3
3
3
3
3
3
3
3
3
3
3
3
3
3
3
3
3
3
3
3
3
3
3
3
3
3
3
3
3
3
3
3
3
3
3
3
3
3
3
3
3
3
3
3
3
3
3
3
3
3
3
3
3
3
3
3
3
3
3
3
3
3
3
3
3
3
3
3
3
3
3

POINT_DATA 89
SCALARS MODE2_15.7142_Hz float 1
LOOKUP_TABLE default
0.0
0.0
0.011193350261151508
0.011192282939548904
0.02762855488280767
0.027628854763382095
0.038230072416478814
0.03823496715987729
0.0001829098691693831
0.0006999618637303263
0.0015036570768711865
0.002546550093667861
0.00378130245866134
0.00516075234087699
0.006637997192509372
0.0081664862098225
0.009700119422428159
0.00018288295262420005
0.0006998624273753522
0.0015034513009118612
0.002546215189299725
0.0037808259086108712
0.0051601311314051984
0.0066372370360154205
0.008165600757827868
0.009699129469312557
0.008985442865459698
0.006778248091822043
0.004547358324790694
0.00228628241046819
5.426052050072751e-07
0.0022852007717661855
0.004546285967730481
0.006777186434667887
0.00898438619930283
0.012726753654081192
0.014384288082025892
0.016126623663507353
0.017915406511308647
0.01971337593395781
0.021484484803845745
0.023194020571584397
0.024808724488390627
0.026296906688605397
0.01272564147007142
0.014383167480565139
0.016125534031290235
0.017914389327537264
0.019712473923250894
0.021483741094079467
0.02319347785954084
0.024808424216117377
0.026296888233361022
0.022867469828458047
0.017651933877556963
0.012032086537025245
0.006104574397152602
2.2694697465202474e-06
0.0061089325886490185
0.012035908407104822
0.017654881145000655
0.022869231463128286
0.028882389824519992
0.030140860992064627
0.03138234808973805
0.03258727146697943
0.03373817578416816
0.03481981124525632
0.03581921121701658
0.03672576520394178
0.037531286302326904
0.028883041385688493
0.030141895534988306
0.031383794837007914
0.032589157141464736
0.03374052421572603
0.03482264300710482
0.03582254329337681
0.03672961069033571
0.03753565413967457
0.03183721491802954
0.024685495070109528
0.016875835868073272
0.008574157742807018
9.20305331500565e-06
0.008591977363695755
0.016891920113206744
0.024698765753240762
0.03184670662057755

