# vtk DataFile Version 2.0
mesh vtk view
ASCII
DATASET UNSTRUCTURED_GRID
POINTS 89 double
0.0 0.0 0.0
5.0 0.0 0.0
-6.251316791990319e-14 1.9999999999999964 -0.575658013430649
4.99999999999994 2.0 0.5756031226053722
-1.071264963123553e-13 3.9999999999999947 -1.4208971082586803
4.999999999999895 4.0 1.420912530688222
-1.3348411153383672e-13 5.999999999999996 -1.966118009990339
4.999999999999865 6.0 1.966369739650832
-1.3363104235509344e-15 0.19999999999962798 -0.009406793271568273
-4.987151502568307e-15 0.3999999999991131 -0.03599803870613107
-1.0432454004721073e-14 0.599999999998529 -0.07733093538194674
-1.719979787861733e-14 0.7999999999979448 -0.13096543338863287
-2.4841563379204766e-14 0.9999999999973824 -0.1944669835882975
-3.2993971635058744e-14 1.1999999999978879 -0.2654101203879595
-4.119110839202602e-14 1.3999999999984156 -0.34138271275762483
-4.905615189186657e-14 1.599999999998942 -0.41999071936230004
-5.627630537467085e-14 1.799999999999469 -0.4988632845820196
4.999999999999999 0.1999999999996283 0.009405408992101717
4.999999999999996 0.39999999999911384 0.035992924836446685
4.99999999999999 0.5999999999985302 0.07732035261832429
4.999999999999984 0.7999999999979464 0.13094820973541443
4.999999999999977 0.9999999999973844 0.19444247529998768
4.999999999999969 1.1999999999978903 0.26537817247226736
4.999999999999961 1.3999999999984183 0.34134361899507876
4.999999999999953 1.5999999999989452 0.41994518183114754
4.999999999999946 1.7999999999994722 0.49881237270750295
0.49999999999953154 2.000000000000006 -0.46210849022364164
0.9999999999983491 2.0000000000000098 -0.34859561615084794
1.4999999999968892 2.000000000000008 -0.23386414241780712
1.9999999999954452 2.000000000000003 -0.11758023825264978
2.4999999999961364 1.9999999999999962 -2.7905410543231292e-05
2.9999999999968976 1.9999999999999896 0.11752461111940384
3.499999999997657 1.9999999999999847 0.23380899262613905
3.999999999998418 1.999999999999984 0.34854101664006276
4.499999999999178 1.9999999999999891 0.462054147392717
-6.81757776267321e-14 2.1999999999999966 -0.6545187593527471
-7.390258691944463e-14 2.399999999999996 -0.7397633870756173
-7.930488505678315e-14 2.599999999999996 -0.8293692169803781
-8.46420698814154e-14 2.7999999999999954 -0.9213637634387304
-8.958898646023938e-14 2.9999999999999956 -1.0138307623178302
-9.414219145288893e-14 3.1999999999999957 -1.1049163613406383
-9.823183365999733e-14 3.399999999999995 -1.1928353436814834
-1.0177614739439312e-13 3.599999999999995 -1.2758772594029466
-1.0479818741944605e-13 3.799999999999995 -1.3524123439854205
4.999999999999934 2.2000000000000006 0.6544615613179587
4.999999999999929 2.4000000000000004 0.73970575614335
4.999999999999924 2.6000000000000005 0.8293131787520692
4.999999999999918 2.8000000000000003 0.9213114511304878
4.999999999999914 3.0000000000000004 1.0137843731957603
4.999999999999909 3.2000000000000006 1.1048781134098011
4.999999999999906 3.4000000000000004 1.192807432776386
4.999999999999901 3.6000000000000005 1.2758618168288938
4.999999999999899 3.8000000000000003 1.352411394858567
0.49999999999948713 3.999999999999997 -1.1760413054635568
0.9999999999983049 3.9999999999999942 -0.9078137422743581
1.4999999999968452 3.9999999999999902 -0.6187930219041554
1.9999999999954017 3.999999999999986 -0.31394954042499096
2.4999999999960933 3.9999999999999822 0.00011671558696389845
2.999999999996855 3.99999999999998 0.3141736759876638
3.499999999997614 3.9999999999999813 0.6189895752225337
3.999999999998375 3.9999999999999853 0.9079653160286051
4.499999999999135 3.999999999999992 1.1761319038180262
-1.0937869256457363e-13 4.199999999999995 -1.4853800481181711
-1.1187323725345749e-13 4.399999999999995 -1.550101422449038
-1.1461310010966012e-13 4.599999999999994 -1.6139493303293855
-1.1743904925292715e-13 4.7999999999999945 -1.6759168183017992
-1.205415663971872e-13 4.999999999999995 -1.7351061831857912
-1.235717161719091e-13 5.199999999999995 -1.7907331497560395
-1.2648481658780992e-13 5.399999999999995 -1.8421308625894244
-1.2922227899393168e-13 5.599999999999994 -1.8887536390598632
-1.3149052354598004e-13 5.799999999999995 -1.9301804384053838
4.999999999999892 4.2 1.4854135569782654
4.999999999999889 4.4 1.5501546275136844
4.999999999999885 4.6 1.6140237344746928
4.999999999999883 4.8 1.676013795846758
4.999999999999879 5.0 1.73522695966591
4.9999999999998765 5.2 1.7908787832225335
4.999999999999873 5.4 1.8423022265165216
4.99999999999987 5.6 1.8889514069315507
4.999999999999868 5.8 1.9304050700404067
0.4999999999994608 5.999999999999998 -1.637342481498662
0.9999999999982783 5.999999999999999 -1.2695397464627758
1.4999999999968177 5.999999999999997 -0.867900130358054
1.9999999999953735 5.999999999999996 -0.4409566839157895
2.499999999996064 5.999999999999993 0.0004732998847717192
2.9999999999968248 5.99999999999999 0.441873121561496
3.4999999999975837 5.999999999999989 0.8687273201077754
3.9999999999983444 5.99999999999999 1.2702222387380964
4.499999999999104 5.999999999999995 1.6378306262011313

CELLS 90 270
2 0 8
2 8 9
2 9 10
2 10 11
2 11 12
2 12 13
2 13 14
2 14 15
2 15 16
2 16 2
2 1 17
2 17 18
2 18 19
2 19 20
2 20 21
2 21 22
2 22 23
2 23 24
2 24 25
2 25 3
2 2 26
2 26 27
2 27 28
2 28 29
2 29 30
2 30 31
2 31 32
2 32 33
2 33 34
2 34 3
2 2 35
2 35 36
2 36 37
2 37 38
2 38 39
2 39 40
2 40 41
2 41 42
2 42 43
2 43 4
2 3 44
2 44 45
2 45 46
2 46 47
2 47 48
2 48 49
2 49 50
2 50 51
2 51 52
2 52 5
2 4 53
2 53 54
2 54 55
2 55 56
2 56 57
2 57 58
2 58 59
2 59 60
2 60 61
2 61 5
2 4 62
2 62 63
2 63 64
2 64 65
2 65 66
2 66 67
2 67 68
2 68 69
2 69 70
2 70 6
2 5 71
2 71 72
2 72 73
2 73 74
2 74 75
2 75 76
2 76 77
2 77 78
2 78 79
2 79 7
2 6 80
2 80 81
2 81 82
2 82 83
2 83 84
2 84 85
2 85 86
2 86 87
2 87 88
2 88 7

CELL_TYPES 90
3
3
3
3
3
3
3
3
3
3
3
3
3
3
3
3
3
3
3
3
3
3
3
3
3
3
3
3
3
3
3
3
3
3
3
3
3
3
3
3
3
3
3
3
3
3
3
3
3
3
3
3
3
3
3
3
3
3
3
3
3
3
3
3
3
3
3
3
3
3
3
3
3
3
3
3
3
3
3
3
3
3
3
3
3
3
3
3
3
3

POINT_DATA 89
SCALARS MODE2_15.7142_Hz float 1
LOOKUP_TABLE default
0.0
0.0
0.011193350261151508
0.011192282939548904
0.02762855488280767
0.027628854763382095
0.038230072416478814
0.03823496715987729
0.0001829098691693831
0.0006999618637303263
0.0015036570768711865
0.002546550093667861
0.00378130245866134
0.00516075234087699
0.006637997192509372
0.0081664862098225
0.009700119422428159
0.00018288295262420005
0.0006998624273753522
0.0015034513009118612
0.002546215189299725
0.0037808259086108712
0.0051601311314051984
0.0066372370360154205
0.008165600757827868
0.009699129469312557
0.008985442865459698
0.006778248091822043
0.004547358324790694
0.00228628241046819
5.426052050072751e-07
0.0022852007717661855
0.004546285967730481
0.006777186434667887
0.00898438619930283
0.012726753654081192
0.014384288082025892
0.016126623663507353
0.017915406511308647
0.01971337593395781
0.021484484803845745
0.023194020571584397
0.024808724488390627
0.026296906688605397
0.01272564147007142
0.014383167480565139
0.016125534031290235
0.017914389327537264
0.019712473923250894
0.021483741094079467
0.02319347785954084
0.024808424216117377
0.026296888233361022
0.022867469828458047
0.017651933877556963
0.012032086537025245
0.006104574397152602
2.2694697465202474e-06
0.0061089325886490185
0.012035908407104822
0.017654881145000655
0.022869231463128286
0.028882389824519992
0.030140860992064627
0.03138234808973805
0.03258727146697943
0.03373817578416816
0.03481981124525632
0.03581921121701658
0.03672576520394178
0.037531286302326904
0.028883041385688493
0.030141895534988306
0.031383794837007914
0.032589157141464736
0.03374052421572603
0.03482264300710482
0.03582254329337681
0.03672961069033571
0.03753565413967457
0.03183721491802954
0.024685495070109528
0.016875835868073272
0.008574157742807018
9.20305331500565e-06
0.008591977363695755
0.016891920113206744
0.024698765753240762
0.03184670662057755

