# vtk DataFile Version 2.0
mesh vtk view
ASCII
DATASET UNSTRUCTURED_GRID
POINTS 89 double
0.0 0.0 0.0
5.0 0.0 0.0
-1.0418861319983863e-14 1.9999999999999993 -0.09594300223844147
4.99999999999999 2.0 0.09593385376756201
-1.785441605205921e-14 3.999999999999999 -0.23681618470977997
4.999999999999982 4.0 0.23681875511470363
-2.2247351922306112e-14 5.999999999999999 -0.32768633499838973
4.999999999999978 6.0 0.32772828994180525
-2.227184039251557e-16 0.19999999999962825 -0.0015677988785947118
-8.311919170947177e-16 0.3999999999991137 -0.00599967311768851
-1.7387423341201786e-15 0.5999999999985298 -0.012888489230324453
-2.866632979769554e-15 0.799999999997946 -0.021827572231438806
-4.1402605632007935e-15 0.9999999999973839 -0.03241116393138291
-5.498995272509789e-15 1.1999999999978896 -0.0442350200646599
-6.865184732004334e-15 1.3999999999984176 -0.05689711879293746
-8.176025315311093e-15 1.5999999999989445 -0.06999845322704999
-9.379384229111806e-15 1.7999999999994716 -0.08314388076366991
5.0 0.1999999999996283 0.0015675681653502859
4.999999999999999 0.3999999999991138 0.005998820806074446
4.999999999999998 0.59999999999853 0.01288672543638738
4.999999999999997 0.7999999999979462 0.021824701622569064
4.9999999999999964 0.9999999999973842 0.0324070792166646
4.999999999999995 1.19999999999789 0.04422969541204455
4.999999999999994 1.399999999998418 0.056890603165846446
4.999999999999992 1.599999999998945 0.06999086363852457
4.999999999999991 1.799999999999472 0.08313539545125047
0.4999999999995839 2.000000000000001 -0.07701808170394026
0.9999999999984016 2.0000000000000018 -0.05809926935847464
1.4999999999969416 2.0000000000000013 -0.03897735706963451
1.9999999999954976 2.0000000000000004 -0.019596706375441624
2.4999999999961884 1.9999999999999993 -4.650901757205214e-06
2.99999999999695 1.9999999999999982 0.0195874351865673
3.499999999997709 1.9999999999999973 0.038968165437689835
3.9999999999984697 1.9999999999999973 0.05809016944001045
4.49999999999923 1.9999999999999982 0.0770090245654528
-1.1362629604455346e-14 2.1999999999999997 -0.10908645989212448
-1.2317097819907437e-14 2.3999999999999995 -0.12329389784593618
-1.3217480842797187e-14 2.599999999999999 -0.13822820283006299
-1.4107011646902562e-14 2.799999999999999 -0.15356062723978836
-1.4931497743373224e-14 2.999999999999999 -0.16897179371963833
-1.569036524214815e-14 3.1999999999999993 -0.18415272689010634
-1.6371972276666216e-14 3.399999999999999 -0.1988058906135805
-1.6962691232398848e-14 3.599999999999999 -0.21264620990049105
-1.7466364569907672e-14 3.799999999999999 -0.22540205733090335
4.999999999999989 2.2 0.10907692688632643
4.9999999999999885 2.4 0.1232842926905583
4.999999999999988 2.6 0.13821886312534484
4.999999999999987 2.8 0.15355190852174794
4.999999999999986 3.0 0.16896406219929333
4.999999999999985 3.2 0.1841463522349668
4.999999999999984 3.4 0.1988012387960643
4.999999999999984 3.6 0.21264363613814888
4.999999999999983 3.8 0.22540189914309441
0.4999999999995765 3.9999999999999996 -0.19600688424392607
0.9999999999983942 3.999999999999999 -0.15130229037905965
1.4999999999969342 3.9999999999999982 -0.10313217031735922
1.9999999999954903 3.999999999999998 -0.05232492340416515
2.4999999999961813 3.999999999999997 1.94525978273164e-05
2.9999999999969424 3.999999999999997 0.05236227933127729
3.499999999997702 3.999999999999997 0.10316492920375558
3.9999999999984626 3.999999999999998 0.15132755267143413
4.499999999999222 3.9999999999999987 0.19602198396967097
-1.82297820940956e-14 4.199999999999999 -0.24756334135302843
-1.864553954224291e-14 4.3999999999999995 -0.2583502370748396
-1.9102183351610016e-14 4.599999999999999 -0.26899155505489747
-1.9573174875487853e-14 4.799999999999999 -0.2793194697169665
-2.009026106619786e-14 4.999999999999999 -0.28918436386429847
-2.059528602865151e-14 5.199999999999999 -0.2984555249593398
-2.108080276463498e-14 5.3999999999999995 -0.3070218104315706
-2.1537046498988605e-14 5.599999999999999 -0.31479227317664377
-2.1915087257663335e-14 5.799999999999999 -0.3216967397342305
4.999999999999982 4.2 0.24756892616304416
4.999999999999981 4.4 0.258359104585614
4.999999999999981 4.6 0.26900395574578206
4.9999999999999805 4.8 0.27933563264112626
4.99999999999998 5.0 0.2892044932776516
4.99999999999998 5.2 0.2984797972037555
4.999999999999979 5.4 0.30705037108608685
4.999999999999979 5.6 0.31482523448859173
4.999999999999978 5.8 0.3217341783400677
0.4999999999995721 6.0 -0.2728904135831102
0.9999999999983897 6.0 -0.2115899577437959
1.4999999999969296 6.0 -0.14465002172634228
1.9999999999954856 5.999999999999999 -0.07349278065263157
2.4999999999961764 5.999999999999999 7.888331412861984e-05
2.9999999999969376 5.999999999999998 0.07364552026024931
3.4999999999976965 5.999999999999998 0.1447878866846292
3.9999999999984572 5.999999999999998 0.21170370645634934
4.4999999999992175 5.999999999999999 0.27297177103352177

CELLS 90 270
2 0 8
2 8 9
2 9 10
2 10 11
2 11 12
2 12 13
2 13 14
2 14 15
2 15 16
2 16 2
2 1 17
2 17 18
2 18 19
2 19 20
2 20 21
2 21 22
2 22 23
2 23 24
2 24 25
2 25 3
2 2 26
2 26 27
2 27 28
2 28 29
2 29 30
2 30 31
2 31 32
2 32 33
2 33 34
2 34 3
2 2 35
2 35 36
2 36 37
2 37 38
2 38 39
2 39 40
2 40 41
2 41 42
2 42 43
2 43 4
2 3 44
2 44 45
2 45 46
2 46 47
2 47 48
2 48 49
2 49 50
2 50 51
2 51 52
2 52 5
2 4 53
2 53 54
2 54 55
2 55 56
2 56 57
2 57 58
2 58 59
2 59 60
2 60 61
2 61 5
2 4 62
2 62 63
2 63 64
2 64 65
2 65 66
2 66 67
2 67 68
2 68 69
2 69 70
2 70 6
2 5 71
2 71 72
2 72 73
2 73 74
2 74 75
2 75 76
2 76 77
2 77 78
2 78 79
2 79 7
2 6 80
2 80 81
2 81 82
2 82 83
2 83 84
2 84 85
2 85 86
2 86 87
2 87 88
2 88 7

CELL_TYPES 90
3
3
3
3
3
3
3
3
3
3
3
3
3
3
3
3
3
3
3
3
3
3
3
3
3
3
3
3
3
3
3
3
3
3
3
3
3
3
3
3
3
3
3
3
3
3
3
3
3
3
3
3
3
3
3
3
3
3
3
3
3
3
3
3
3
3
3
3
3
3
3
3
3
3
3
3
3
3
3
3
3
3
3
3
3
3
3
3
3
3

POINT_DATA 89
SCALARS MODE2_15.7142_Hz float 1
LOOKUP_TABLE default
0.0
0.0
0.011193350261151508
0.011192282939548904
0.02762855488280767
0.027628854763382095
0.038230072416478814
0.03823496715987729
0.0001829098691693831
0.0006999618637303263
0.0015036570768711865
0.002546550093667861
0.00378130245866134
0.00516075234087699
0.006637997192509372
0.0081664862098225
0.009700119422428159
0.00018288295262420005
0.0006998624273753522
0.0015034513009118612
0.002546215189299725
0.0037808259086108712
0.0051601311314051984
0.0066372370360154205
0.008165600757827868
0.009699129469312557
0.008985442865459698
0.006778248091822043
0.004547358324790694
0.00228628241046819
5.426052050072751e-07
0.0022852007717661855
0.004546285967730481
0.006777186434667887
0.00898438619930283
0.012726753654081192
0.014384288082025892
0.016126623663507353
0.017915406511308647
0.01971337593395781
0.021484484803845745
0.023194020571584397
0.024808724488390627
0.026296906688605397
0.01272564147007142
0.014383167480565139
0.016125534031290235
0.017914389327537264
0.019712473923250894
0.021483741094079467
0.02319347785954084
0.024808424216117377
0.026296888233361022
0.022867469828458047
0.017651933877556963
0.012032086537025245
0.006104574397152602
2.2694697465202474e-06
0.0061089325886490185
0.012035908407104822
0.017654881145000655
0.022869231463128286
0.028882389824519992
0.030140860992064627
0.03138234808973805
0.03258727146697943
0.03373817578416816
0.03481981124525632
0.03581921121701658
0.03672576520394178
0.037531286302326904
0.028883041385688493
0.030141895534988306
0.031383794837007914
0.032589157141464736
0.03374052421572603
0.03482264300710482
0.03582254329337681
0.03672961069033571
0.03753565413967457
0.03183721491802954
0.024685495070109528
0.016875835868073272
0.008574157742807018
9.20305331500565e-06
0.008591977363695755
0.016891920113206744
0.024698765753240762
0.03184670662057755

