# vtk DataFile Version 2.0
mesh vtk view
ASCII
DATASET UNSTRUCTURED_GRID
POINTS 89 double
0.0 0.0 0.0
5.0 0.0 0.0
3.125658395995159e-14 2.0000000000000018 0.2878290067153244
5.00000000000003 2.0 -0.287801561302686
5.356324815617763e-14 4.000000000000003 0.7104485541293399
5.000000000000052 4.0 -0.7104562653441109
6.674205576691833e-14 6.000000000000003 0.9830590049951693
5.0000000000000675 6.0 -0.9831848698254158
6.68155211775467e-16 0.19999999999962847 0.004703396635784136
2.4935757512841533e-15 0.3999999999991141 0.01799901935306553
5.216227002360536e-15 0.5999999999985306 0.03866546769097336
8.599898939308663e-15 0.7999999999979469 0.0654827166943164
1.242078168960238e-14 0.9999999999973851 0.09723349179414872
1.649698581752937e-14 1.1999999999978912 0.1327050601939797
2.0595554196013003e-14 1.3999999999984194 0.1706913563788124
2.4528075945933278e-14 1.5999999999989463 0.20999535968114996
2.8138152687335417e-14 1.7999999999994736 0.24943164229100973
5.000000000000001 0.1999999999996283 -0.004702704496050858
5.000000000000003 0.3999999999991138 -0.01799646241822334
5.000000000000004 0.59999999999853 -0.03866017630916214
5.000000000000008 0.7999999999979461 -0.06547410486770719
5.0000000000000115 0.9999999999973841 -0.09722123764999381
5.000000000000016 1.19999999999789 -0.13268908623613365
5.0000000000000195 1.399999999998418 -0.17067180949753935
5.000000000000023 1.599999999998945 -0.20997259091557371
5.000000000000027 1.799999999999472 -0.2494061863537514
0.4999999999996258 1.999999999999997 0.23105424511182077
0.9999999999984435 1.9999999999999951 0.17429780807542392
1.4999999999969835 1.999999999999996 0.11693207120890353
1.9999999999955393 1.9999999999999984 0.05879011912632487
2.4999999999962306 2.0000000000000018 1.3952705271615643e-05
2.9999999999969913 2.0000000000000053 -0.0587623055597019
3.4999999999977502 2.0000000000000075 -0.1169044963130695
3.9999999999985105 2.000000000000008 -0.17427050832003133
4.49999999999927 2.0000000000000053 -0.23102707369635841
3.408788881336604e-14 2.200000000000002 0.3272593796763734
3.695129345972231e-14 2.4000000000000017 0.36988169353780853
3.9652442528391564e-14 2.6000000000000023 0.41468460849018896
4.2321034940707687e-14 2.800000000000002 0.4606818817193651
4.479449323011968e-14 3.000000000000002 0.506915381158915
4.707109572644445e-14 3.2000000000000024 0.552458180670319
4.911591682999865e-14 3.400000000000002 0.5964176718407415
5.088807369719654e-14 3.6000000000000028 0.6379386297014731
5.239909370972301e-14 3.8000000000000025 0.67620617199271
5.000000000000033 2.2 -0.3272307806589793
5.0000000000000355 2.4 -0.3698528780716749
5.000000000000038 2.6 -0.4146565893760345
5.000000000000041 2.8 -0.4606557255652438
5.000000000000043 3.0 -0.50689218659788
5.000000000000045 3.2 -0.5524390567049005
5.000000000000047 3.4 -0.5964037163881929
5.000000000000049 3.6 -0.6379309084144467
5.000000000000051 3.8 -0.6762056974292833
0.499999999999648 4.000000000000002 0.5880206527317782
0.9999999999984656 4.000000000000003 0.4539068711371789
1.4999999999970053 4.000000000000005 0.30939651095207765
1.999999999995561 4.000000000000007 0.15697477021249545
2.499999999996252 4.000000000000009 -5.8357793481949204e-05
2.999999999997013 4.00000000000001 -0.15708683799383186
3.4999999999977716 4.00000000000001 -0.30949478761126675
3.9999999999985323 4.000000000000007 -0.45398265801430243
4.499999999999292 4.0000000000000036 -0.5880659519090129
5.46893462822868e-14 4.200000000000003 0.7426900240590854
5.593661862672873e-14 4.400000000000003 0.7750507112245187
5.730655005483005e-14 4.600000000000002 0.8069746651646925
5.871952462646356e-14 4.8000000000000025 0.8379584091508994
6.027078319859358e-14 5.000000000000003 0.8675530915928954
6.178585808595453e-14 5.200000000000003 0.8953665748780195
6.324240829390495e-14 5.400000000000003 0.9210654312947119
6.461113949696582e-14 5.600000000000002 0.9443768195299312
6.574526177299001e-14 5.8000000000000025 0.9650902192026916
5.000000000000054 4.2 -0.7427067784891325
5.000000000000056 4.4 -0.775077313756842
5.000000000000057 4.6 -0.8070118672373462
5.000000000000059 4.8 -0.8380068979233787
5.00000000000006 5.0 -0.8676134798329548
5.000000000000062 5.2 -0.8954393916112665
5.000000000000063 5.4 -0.9211511132582605
5.000000000000065 5.6 -0.9444757034657751
5.000000000000067 5.8 -0.965202535020203
0.49999999999966116 6.000000000000001 0.8186712407493307
0.999999999998479 6.000000000000001 0.6347698732313877
1.499999999997019 6.000000000000001 0.4339500651790269
1.9999999999955753 6.000000000000003 0.2204783419578947
2.4999999999962665 6.0000000000000036 -0.00023664994238585952
2.9999999999970277 6.000000000000005 -0.22093656078074791
3.499999999997787 6.000000000000005 -0.4343636600538876
3.999999999998548 6.000000000000004 -0.6351111193690481
4.499999999999307 6.000000000000003 -0.8189153131005654

CELLS 90 270
2 0 8
2 8 9
2 9 10
2 10 11
2 11 12
2 12 13
2 13 14
2 14 15
2 15 16
2 16 2
2 1 17
2 17 18
2 18 19
2 19 20
2 20 21
2 21 22
2 22 23
2 23 24
2 24 25
2 25 3
2 2 26
2 26 27
2 27 28
2 28 29
2 29 30
2 30 31
2 31 32
2 32 33
2 33 34
2 34 3
2 2 35
2 35 36
2 36 37
2 37 38
2 38 39
2 39 40
2 40 41
2 41 42
2 42 43
2 43 4
2 3 44
2 44 45
2 45 46
2 46 47
2 47 48
2 48 49
2 49 50
2 50 51
2 51 52
2 52 5
2 4 53
2 53 54
2 54 55
2 55 56
2 56 57
2 57 58
2 58 59
2 59 60
2 60 61
2 61 5
2 4 62
2 62 63
2 63 64
2 64 65
2 65 66
2 66 67
2 67 68
2 68 69
2 69 70
2 70 6
2 5 71
2 71 72
2 72 73
2 73 74
2 74 75
2 75 76
2 76 77
2 77 78
2 78 79
2 79 7
2 6 80
2 80 81
2 81 82
2 82 83
2 83 84
2 84 85
2 85 86
2 86 87
2 87 88
2 88 7

CELL_TYPES 90
3
3
3
3
3
3
3
3
3
3
3
3
3
3
3
3
3
3
3
3
3
3
3
3
3
3
3
3
3
3
3
3
3
3
3
3
3
3
3
3
3
3
3
3
3
3
3
3
3
3
3
3
3
3
3
3
3
3
3
3
3
3
3
3
3
3
3
3
3
3
3
3
3
3
3
3
3
3
3
3
3
3
3
3
3
3
3
3
3
3

POINT_DATA 89
SCALARS MODE2_15.7142_Hz float 1
LOOKUP_TABLE default
0.0
0.0
0.011193350261151508
0.011192282939548904
0.02762855488280767
0.027628854763382095
0.038230072416478814
0.03823496715987729
0.0001829098691693831
0.0006999618637303263
0.0015036570768711865
0.002546550093667861
0.00378130245866134
0.00516075234087699
0.006637997192509372
0.0081664862098225
0.009700119422428159
0.00018288295262420005
0.0006998624273753522
0.0015034513009118612
0.002546215189299725
0.0037808259086108712
0.0051601311314051984
0.0066372370360154205
0.008165600757827868
0.009699129469312557
0.008985442865459698
0.006778248091822043
0.004547358324790694
0.00228628241046819
5.426052050072751e-07
0.0022852007717661855
0.004546285967730481
0.006777186434667887
0.00898438619930283
0.012726753654081192
0.014384288082025892
0.016126623663507353
0.017915406511308647
0.01971337593395781
0.021484484803845745
0.023194020571584397
0.024808724488390627
0.026296906688605397
0.01272564147007142
0.014383167480565139
0.016125534031290235
0.017914389327537264
0.019712473923250894
0.021483741094079467
0.02319347785954084
0.024808424216117377
0.026296888233361022
0.022867469828458047
0.017651933877556963
0.012032086537025245
0.006104574397152602
2.2694697465202474e-06
0.0061089325886490185
0.012035908407104822
0.017654881145000655
0.022869231463128286
0.028882389824519992
0.030140860992064627
0.03138234808973805
0.03258727146697943
0.03373817578416816
0.03481981124525632
0.03581921121701658
0.03672576520394178
0.037531286302326904
0.028883041385688493
0.030141895534988306
0.031383794837007914
0.032589157141464736
0.03374052421572603
0.03482264300710482
0.03582254329337681
0.03672961069033571
0.03753565413967457
0.03183721491802954
0.024685495070109528
0.016875835868073272
0.008574157742807018
9.20305331500565e-06
0.008591977363695755
0.016891920113206744
0.024698765753240762
0.03184670662057755

