# vtk DataFile Version 2.0
mesh vtk view
ASCII
DATASET UNSTRUCTURED_GRID
POINTS 89 double
0.0 0.0 0.0
5.0 0.0 0.0
4.167544527993546e-14 2.000000000000002 0.38377200895376595
5.00000000000004 1.9999999999999998 -0.3837354150702481
7.141766420823685e-14 4.0000000000000036 0.9472647388391201
5.00000000000007 4.0 -0.9472750204588146
8.898940768922447e-14 6.0000000000000036 1.3107453399935594
5.000000000000091 6.0 -1.3109131597672212
8.90873615700623e-16 0.19999999999962853 0.006271195514378849
3.3247676683788717e-15 0.39999999999911423 0.023998692470754045
6.954969336480715e-15 0.5999999999985307 0.05155395692129782
1.146653191907822e-14 0.7999999999979472 0.08731028892575524
1.6561042252803177e-14 0.9999999999973854 0.12964465572553166
2.1995981090039163e-14 1.1999999999978914 0.17694008025863966
2.7460738928017342e-14 1.3999999999984198 0.22758847517174988
3.270410126124438e-14 1.599999999998947 0.2799938129082
3.751753691644723e-14 1.7999999999994742 0.3325755230546797
5.000000000000001 0.1999999999996283 -0.006270272661401144
5.000000000000003 0.39999999999911373 -0.02399528322429779
5.000000000000006 0.5999999999985299 -0.051546901745549524
5.000000000000011 0.7999999999979461 -0.08729880649027628
5.000000000000016 0.9999999999973841 -0.12962831686665843
5.00000000000002 1.1999999999978899 -0.17691878164817823
5.000000000000026 1.3999999999984178 -0.22756241266338584
5.000000000000031 1.5999999999989447 -0.2799634545540983
5.000000000000036 1.7999999999994718 -0.33254158180500193
0.49999999999963624 1.9999999999999958 0.3080723268157611
0.999999999998454 1.9999999999999936 0.2323970774338986
1.499999999996994 1.9999999999999947 0.15590942827853807
1.9999999999955498 1.999999999999998 0.07838682550176651
2.499999999996241 2.0000000000000027 1.860360702882086e-05
2.999999999997002 2.000000000000007 -0.07834974074626921
3.4999999999977605 2.00000000000001 -0.15587266175075937
3.9999999999985207 2.0000000000000107 -0.23236067776004182
4.499999999999281 2.000000000000007 -0.3080360982618113
4.5450518417821396e-14 2.200000000000003 0.436345839568498
4.9268391279629753e-14 2.4000000000000026 0.49317559138374484
5.286992337118876e-14 2.6000000000000028 0.552912811320252
5.642804658761026e-14 2.8000000000000025 0.6142425089591536
5.972599097349291e-14 3.000000000000003 0.6758871748785534
6.276146096859262e-14 3.2000000000000033 0.7366109075604256
6.548788910666488e-14 3.400000000000003 0.7952235624543221
6.78507649295954e-14 3.600000000000003 0.8505848396019643
6.98654582796307e-14 3.8000000000000034 0.9016082293236136
5.000000000000044 2.2 -0.43630770754530585
5.000000000000048 2.4 -0.4931371707622333
5.000000000000051 2.6 -0.5528754525013795
5.000000000000054 2.7999999999999994 -0.6142076340869919
5.000000000000058 2.9999999999999996 -0.6758562487971734
5.00000000000006 3.1999999999999997 -0.7365854089398675
5.000000000000063 3.3999999999999995 -0.7952049551842573
5.000000000000066 3.6 -0.8505745445525957
5.0000000000000675 3.8 -0.9016075965723779
0.4999999999996659 4.000000000000002 0.7840275369757045
0.9999999999984834 4.0000000000000036 0.6052091615162387
1.4999999999970233 4.000000000000006 0.4125286812694369
1.9999999999955789 4.00000000000001 0.20929969361666065
2.4999999999962697 4.0000000000000115 -7.781039130926562e-05
2.9999999999970304 4.000000000000013 -0.2094491173251092
3.4999999999977893 4.000000000000012 -0.41265971681502245
3.99999999999855 4.00000000000001 -0.6053102106857368
4.49999999999931 4.000000000000005 -0.7840879358786841
7.291912837638243e-14 4.200000000000004 0.990253365412114
7.458215816897166e-14 4.400000000000004 1.0334009482993587
7.640873340644008e-14 4.600000000000003 1.07596622021959
7.829269950195142e-14 4.800000000000003 1.1172778788678661
8.036104426479146e-14 5.0000000000000036 1.156737455457194
8.238114411460606e-14 5.200000000000004 1.1938220998373597
8.432321105853995e-14 5.400000000000004 1.2280872417262827
8.614818599595445e-14 5.600000000000003 1.2591690927065753
8.766034903065336e-14 5.800000000000003 1.2867869589369223
5.000000000000072 4.2 -0.9902757046521768
5.000000000000075 4.4 -1.0334364183424563
5.000000000000076 4.6 -1.0760158229831285
5.000000000000078 4.8 -1.1173425305645053
5.000000000000081 5.0 -1.1568179731106067
5.000000000000083 5.2 -1.1939191888150222
5.000000000000084 5.4 -1.2282014843443476
5.000000000000086 5.6 -1.2593009379543671
5.000000000000089 5.8 -1.286936713360271
0.4999999999996834 6.000000000000001 1.0915616543324411
0.9999999999985013 6.000000000000001 0.8463598309751837
1.4999999999970415 6.000000000000002 0.5786000869053693
1.9999999999955977 6.0000000000000036 0.2939711226105263
2.499999999996289 6.000000000000005 -0.0003155332565144794
2.9999999999970504 6.000000000000007 -0.2945820810409973
3.4999999999978093 6.000000000000007 -0.5791515467385169
3.9999999999985705 6.000000000000006 -0.8468148258253976
4.49999999999933 6.0000000000000036 -1.0918870841340873

CELLS 90 270
2 0 8
2 8 9
2 9 10
2 10 11
2 11 12
2 12 13
2 13 14
2 14 15
2 15 16
2 16 2
2 1 17
2 17 18
2 18 19
2 19 20
2 20 21
2 21 22
2 22 23
2 23 24
2 24 25
2 25 3
2 2 26
2 26 27
2 27 28
2 28 29
2 29 30
2 30 31
2 31 32
2 32 33
2 33 34
2 34 3
2 2 35
2 35 36
2 36 37
2 37 38
2 38 39
2 39 40
2 40 41
2 41 42
2 42 43
2 43 4
2 3 44
2 44 45
2 45 46
2 46 47
2 47 48
2 48 49
2 49 50
2 50 51
2 51 52
2 52 5
2 4 53
2 53 54
2 54 55
2 55 56
2 56 57
2 57 58
2 58 59
2 59 60
2 60 61
2 61 5
2 4 62
2 62 63
2 63 64
2 64 65
2 65 66
2 66 67
2 67 68
2 68 69
2 69 70
2 70 6
2 5 71
2 71 72
2 72 73
2 73 74
2 74 75
2 75 76
2 76 77
2 77 78
2 78 79
2 79 7
2 6 80
2 80 81
2 81 82
2 82 83
2 83 84
2 84 85
2 85 86
2 86 87
2 87 88
2 88 7

CELL_TYPES 90
3
3
3
3
3
3
3
3
3
3
3
3
3
3
3
3
3
3
3
3
3
3
3
3
3
3
3
3
3
3
3
3
3
3
3
3
3
3
3
3
3
3
3
3
3
3
3
3
3
3
3
3
3
3
3
3
3
3
3
3
3
3
3
3
3
3
3
3
3
3
3
3
3
3
3
3
3
3
3
3
3
3
3
3
3
3
3
3
3
3

POINT_DATA 89
SCALARS MODE2_15.7142_Hz float 1
LOOKUP_TABLE default
0.0
0.0
0.011193350261151508
0.011192282939548904
0.02762855488280767
0.027628854763382095
0.038230072416478814
0.03823496715987729
0.0001829098691693831
0.0006999618637303263
0.0015036570768711865
0.002546550093667861
0.00378130245866134
0.00516075234087699
0.006637997192509372
0.0081664862098225
0.009700119422428159
0.00018288295262420005
0.0006998624273753522
0.0015034513009118612
0.002546215189299725
0.0037808259086108712
0.0051601311314051984
0.0066372370360154205
0.008165600757827868
0.009699129469312557
0.008985442865459698
0.006778248091822043
0.004547358324790694
0.00228628241046819
5.426052050072751e-07
0.0022852007717661855
0.004546285967730481
0.006777186434667887
0.00898438619930283
0.012726753654081192
0.014384288082025892
0.016126623663507353
0.017915406511308647
0.01971337593395781
0.021484484803845745
0.023194020571584397
0.024808724488390627
0.026296906688605397
0.01272564147007142
0.014383167480565139
0.016125534031290235
0.017914389327537264
0.019712473923250894
0.021483741094079467
0.02319347785954084
0.024808424216117377
0.026296888233361022
0.022867469828458047
0.017651933877556963
0.012032086537025245
0.006104574397152602
2.2694697465202474e-06
0.0061089325886490185
0.012035908407104822
0.017654881145000655
0.022869231463128286
0.028882389824519992
0.030140860992064627
0.03138234808973805
0.03258727146697943
0.03373817578416816
0.03481981124525632
0.03581921121701658
0.03672576520394178
0.037531286302326904
0.028883041385688493
0.030141895534988306
0.031383794837007914
0.032589157141464736
0.03374052421572603
0.03482264300710482
0.03582254329337681
0.03672961069033571
0.03753565413967457
0.03183721491802954
0.024685495070109528
0.016875835868073272
0.008574157742807018
9.20305331500565e-06
0.008591977363695755
0.016891920113206744
0.024698765753240762
0.03184670662057755

