# vtk DataFile Version 2.0
mesh vtk view
ASCII
DATASET UNSTRUCTURED_GRID
POINTS 89 double
0.0 0.0 0.0
5.0 0.0 0.0
0.07218976796759305 2.0029055841272956 -7.564604879382507e-15
5.0721897677568 1.997094384153458 6.309082542099915e-15
0.1805046850387796 4.004594161791531 -2.739294554048729e-14
5.180504719945357 3.9954056662086166 2.0033558927957335e-14
0.2562572014765155 6.005190918128269 -4.3261239505832103e-14
5.2562571772585365 5.994808867905073 2.396046502011983e-14
0.0012192114111322318 0.2002906839143566 -9.848895078980103e-17
0.0046553925660484064 0.4005813574347673 -3.6133287394564753e-16
0.009976421208808208 0.6008720140005486 -7.615960348728344e-16
0.016850347861444678 0.8011626470511567 -1.2643705517293781e-15
0.02494556654683751 1.001453250026049 -1.8858431555615724e-15
0.03393103638204498 1.201743816365584 -2.737111655574149e-15
0.0434765431821571 1.4020343395076689 -3.694618899234726e-15
0.053252990234375915 1.6023248128906014 -4.7828507548787346e-15
0.06293270742851965 1.8026152299517664 -6.156526290532289e-15
5.001219211436659 0.1997093309577869 9.096268408028023e-17
5.004655392812931 0.3994186656420128 3.4050346477614014e-16
5.009976421795359 0.5991280116120359 7.25655527597467e-16
5.016850348828523 0.7988373764266681 1.245508855168285e-15
5.024945567857958 0.9985467676436939 1.875636975189908e-15
5.033931037923521 1.198256192820424 2.6220267234553223e-15
5.043476544763289 1.3979656595100096 3.421787990117805e-15
5.053252991587666 1.5976751752639313 4.324238238146939e-15
5.062932708209927 1.7973847476303573 5.272496838566982e-15
0.5722391500995896 1.9866279749936702 -1.8838045664664197e-14
1.0722775661950228 1.9807792409673577 -3.33572268897808e-14
1.5723050104227576 1.9827900077724763 -4.023189119554354e-14
2.0723214786170034 1.9900679837695034 -4.0851750209549014e-14
2.5723269682799765 1.999999979963194 -3.5210704336893837e-14
3.0723214785762716 2.009931976541517 -2.6180314268057948e-14
3.572305010339163 2.0172099536669035 -1.761555886626095e-14
4.072277566068564 2.0192207222678493 -8.426851018973082e-15
4.572239149930562 2.0133719905794263 7.407749937196511e-16
0.08174387618888945 2.2030748291584357 -9.268614224365682e-15
0.0923368342523806 2.403243997943219 -1.112841726330726e-14
0.10367942376972977 2.6034130868075582 -1.3124558419569563e-14
0.11548545900482995 2.8035820920747416 -1.5231685937314962e-14
0.12747215533141057 3.003751010064975 -1.7517124014374852e-14
0.13936051290787088 3.2039198370948903 -1.965399743962368e-14
0.15087570631058134 3.4040885694770533 -2.1872730515357475e-14
0.16174747099092984 3.6042572035194738 -2.3792881646377487e-14
0.17171047755809313 3.8044257355251294 -2.5506999173962678e-14
5.08174387460353 2.1969251289306437 7.507742101605271e-15
5.092336831208892 2.3967559468305133 8.896826291345046e-15
5.103679419622657 2.5965868423971266 1.0421754086084993e-14
5.115485454547049 2.7964178201680925 1.2007209162665422e-14
5.12747215179434 2.996248884673909 1.3596058761905517e-14
5.139360511961687 3.1960800404372742 1.506588753734025e-14
5.1508757100644935 3.395911291972394 1.6548959322451083e-14
5.161747481993557 3.595742643784293 1.7895841469311224e-14
5.171710498798017 3.795574100368141 1.907666525474688e-14
0.6806281646247927 3.989690104557047 -1.3838996059585129e-14
1.1807242245225797 3.9840797538218635 3.787847206315515e-15
1.6807928501505702 3.985471321446329 1.5552831029204624e-14
2.1808340310915617 3.9915541421318887 2.1292889783081603e-14
2.6808477610963304 3.999999961206387 2.3683344898770693e-14
3.1808340380785705 4.008445776611847 2.380639594092703e-14
3.6807928641213903 4.014528586239887 2.1773688975777098e-14
4.1807242454750755 4.015920135262318 1.986834799727019e-14
4.68062819255606 4.010309758104869 1.8904081485262328e-14
0.1888138994377312 4.204654362500348 -2.947839668507769e-14
0.19737716884177853 4.4047144497773605 -3.1391199840575324e-14
0.20602616114308916 4.604774422416187 -3.324245053690139e-14
0.21459901044061822 4.804834279203511 -3.5052671761716055e-14
0.22294059860429316 5.004894018918677 -3.672727688227526e-14
0.23090283441768428 5.204953640333312 -3.8281412043810135e-14
0.23834492522111497 5.405013142210946 -3.972411742927233e-14
0.24513363620726308 5.605072523306648 -4.106517503336188e-14
0.2511435327602394 5.8051317823666935 -4.2346340454815363e-14
5.188813952070433 4.195345459082283 2.0738713009201406e-14
5.19737724160357 4.395285364626542 2.126195737116809e-14
5.206026253559956 4.595225384554088 2.17468469444853e-14
5.214599119164403 4.795165520565119 2.2150621678723636e-14
5.222940717416165 4.995105774346864 2.2531698699915055e-14
5.230902954232101 5.195046147573129 2.2876930130179527e-14
5.238345034090104 5.394986641903845 2.32925110444873e-14
5.245133719324702 5.594927258984639 2.3587956019529825e-14
5.251143572465761 5.794868000446435 2.3771405603311735e-14
0.7564324944235197 5.996558835894772 -3.2147002908059054e-14
1.2565688604456786 5.992975569496075 -1.9357973655515898e-14
1.7566662788428788 5.993193304770579 -6.316689369250369e-15
2.256724734827122 5.995956050204581 4.2280889076465935e-15
2.7567442195268006 5.999999647683978 9.892066897591345e-15
3.2567247299820368 6.004043265646523 1.2883632858418586e-14
3.756666269151306 6.006806072083542 1.5213413816651976e-14
4.256568845909076 6.007023907567726 1.7474820358494825e-14
4.756432475044369 6.003440778483215 2.061635656628492e-14

CELLS 90 270
2 0 8
2 8 9
2 9 10
2 10 11
2 11 12
2 12 13
2 13 14
2 14 15
2 15 16
2 16 2
2 1 17
2 17 18
2 18 19
2 19 20
2 20 21
2 21 22
2 22 23
2 23 24
2 24 25
2 25 3
2 2 26
2 26 27
2 27 28
2 28 29
2 29 30
2 30 31
2 31 32
2 32 33
2 33 34
2 34 3
2 2 35
2 35 36
2 36 37
2 37 38
2 38 39
2 39 40
2 40 41
2 41 42
2 42 43
2 43 4
2 3 44
2 44 45
2 45 46
2 46 47
2 47 48
2 48 49
2 49 50
2 50 51
2 51 52
2 52 5
2 4 53
2 53 54
2 54 55
2 55 56
2 56 57
2 57 58
2 58 59
2 59 60
2 60 61
2 61 5
2 4 62
2 62 63
2 63 64
2 64 65
2 65 66
2 66 67
2 67 68
2 68 69
2 69 70
2 70 6
2 5 71
2 71 72
2 72 73
2 73 74
2 74 75
2 75 76
2 76 77
2 77 78
2 78 79
2 79 7
2 6 80
2 80 81
2 81 82
2 82 83
2 83 84
2 84 85
2 85 86
2 86 87
2 87 88
2 88 7

CELL_TYPES 90
3
3
3
3
3
3
3
3
3
3
3
3
3
3
3
3
3
3
3
3
3
3
3
3
3
3
3
3
3
3
3
3
3
3
3
3
3
3
3
3
3
3
3
3
3
3
3
3
3
3
3
3
3
3
3
3
3
3
3
3
3
3
3
3
3
3
3
3
3
3
3
3
3
3
3
3
3
3
3
3
3
3
3
3
3
3
3
3
3
3

POINT_DATA 89
SCALARS MODE3_19.7959_Hz float 1
LOOKUP_TABLE default
0.0
0.0
0.00842895877809963
0.008428958902352856
0.02106569970441862
0.021065704286109887
0.029902806668902354
0.02990280434962054
0.0001462282334823463
0.0005473476866237185
0.001168353547044403
0.001970547906736685
0.0029152505168432374
0.003963845290340309
0.005077813092024696
0.006218766411933759
0.0073484860403609025
0.00014622783396988658
0.0005473473815682226
0.0011683533549960027
0.0019705478307199585
0.00291525054962212
0.003963845414911769
0.005077813281627815
0.006218766629930736
0.0073484862400344094
0.008571075181112836
0.008725453243587611
0.008671244302165516
0.008516699602084227
0.00843814629977435
0.008516698967225633
0.008671243250905862
0.008725452127001534
0.008571074430703311
0.00954353005921587
0.010779276795442492
0.012102485186295161
0.013479783305155556
0.014878188758173245
0.01626515674651195
0.01760862764069545
0.01887707339262975
0.020039542068053112
0.009543530058183902
0.01077927666680932
0.012102484974485603
0.013479783102751934
0.014878188706908527
0.016265157037895515
0.01760862851637113
0.018877075144551638
0.020039545038538092
0.02110758527557035
0.02116614355550101
0.02116049595874378
0.021120301493016327
0.021098905461682457
0.021120301864835923
0.021160496720647588
0.02116614485500447
0.021107587615908564
0.022034979980370288
0.023033904165733254
0.02404283870657604
0.025042903027371482
0.02601600273781094
0.026944862514024955
0.027813058052832434
0.02860504653685194
0.029306195081890085
0.02203498663195085
0.02303391316924055
0.02404285000739862
0.02504291623471192
0.02601601712520432
0.02694487701989406
0.02781307128105337
0.028605056757295605
0.029306200230894676
0.029919817960940315
0.029944250125026602
0.029954927159314925
0.029954934703888506
0.02995349227859837
0.02995493288150151
0.02995492410171848
0.029944246760073127
0.029919815096645035

