# vtk DataFile Version 2.0
mesh vtk view
ASCII
DATASET UNSTRUCTURED_GRID
POINTS 89 double
0.0 0.0 0.0
5.0 0.0 0.0
-1.0342959046398773e-16 2.0 -0.1369993347779526
5.0 2.0 -0.13699515786876043
-1.2789384870391814e-16 4.0 -0.4615072810468252
5.0 4.0 -0.46149484037174804
-1.292141047696341e-16 6.0 -0.860506686191698
5.0 6.0 -0.8604859403260318
-2.5286414234861482e-18 0.1999999999996283 -0.0015699483378730757
-9.25539937314223e-18 0.3999999999991138 -0.006190836613305939
-1.932307306268475e-17 0.59999999999853 -0.013729240226159607
-3.140677163498309e-17 0.7999999999979462 -0.024051767694940787
-4.4639380718259824e-17 0.9999999999973842 -0.0370250958920812
-5.846063009291854e-17 1.19999999999789 -0.052516018360996126
-7.212925225813564e-17 1.399999999998418 -0.07039150608813878
-8.503859340997831e-17 1.599999999998945 -0.09051878010501482
-9.533352024917203e-17 1.799999999999472 -0.11276539529449078
5.0 0.1999999999996283 -0.0015698862971808513
5.0 0.3999999999991138 -0.006190597422665004
5.0 0.59999999999853 -0.01372872225697355
5.0 0.7999999999979462 -0.024050882828510135
5.0 0.9999999999973842 -0.03702376954754904
5.0 1.19999999999789 -0.05251418952158876
5.0 1.399999999998418 -0.07038912732535042
5.0 1.599999999998945 -0.09051581760045072
5.0 1.799999999999472 -0.11276182885914483
0.49999999999959427 2.0 -0.13826559068100133
0.9999999999984119 2.0 -0.13937052832615912
1.499999999996952 2.0 -0.14022411463189274
1.999999999995508 2.0 -0.14076188896360556
2.499999999996199 2.0 -0.14094511782942443
2.99999999999696 2.0 -0.14076089259750157
3.499999999997719 2.0 -0.1402221625322796
3.99999999999848 2.0 -0.13936770117901912
4.49999999999924 2.0 -0.13826200886988774
-1.1151651677492345e-16 2.2 -0.1630905059619504
-1.1686336177290456e-16 2.4 -0.19091492542668106
-1.2271259942173271e-16 2.6 -0.22035071819363494
-1.2534182443433291e-16 2.8 -0.2512769085427402
-1.2773458684740394e-16 3.0 -0.2835735581527999
-1.3028146045039415e-16 3.2 -0.3171219112462103
-1.3071095974427019e-16 3.4 -0.3518045461746129
-1.2928999815969198e-16 3.6 -0.38750553288769923
-1.293445544727106e-16 3.8 -0.4241105957336647
5.0 2.2 -0.16308567395333043
5.0 2.4 -0.1909093572510809
5.0 2.6 -0.22034434890783894
5.0 2.8 -0.2512696893342016
5.0 3.0 -0.28356545634223274
5.0 3.2 -0.3171129102862079
5.0 3.4 -0.3517946456441438
5.0 3.6 -0.3874947484823986
5.0 3.8 -0.4240989592519231
0.49999999999959427 4.0 -0.4642364752667922
0.9999999999984119 4.0 -0.4667606731350576
1.4999999999969518 4.0 -0.4687787980719012
1.9999999999955078 4.0 -0.4700754275019696
2.499999999996199 4.0 -0.4705211566720665
2.99999999999696 4.0 -0.47007283319166043
3.499999999997719 4.0 -0.46877363700721025
3.99999999999848 4.0 -0.4667529989224914
4.49999999999924 4.0 -0.46422636661783595
-1.2569771448973303e-16 4.2 -0.4995897353834074
-1.2585129453666805e-16 4.4 -0.5382725682108563
-1.2361925304833101e-16 4.6 -0.577477277570156
-1.2319211370514815e-16 4.8 -0.6171278913622059
-1.2360750667456874e-16 5.0 -0.6571511514512814
-1.240924425329527e-16 5.2 -0.6974766998673994
-1.2512456755687593e-16 5.4 -0.7380372667636322
-1.2646310405483392e-16 5.6 -0.7787688597980553
-1.2742704995223775e-16 5.8 -0.8196109546244991
5.0 4.2 -0.49957648834777
5.0 4.4 -0.5382584634553799
5.0 4.6 -0.5774622810631888
5.0 4.8 -0.617111986358411
5.0 5.0 -0.6571343384461533
5.0 5.2 -0.6974589965475391
5.0 5.4 -0.7380187079527812
5.0 5.6 -0.7787494973989659
5.0 5.8 -0.819590857556802
0.49999999999959427 6.0 -0.8644507067023262
0.9999999999984119 6.0 -0.8682649843514919
1.4999999999969518 6.0 -0.8713896811651426
1.9999999999955078 6.0 -0.873424299860124
2.499999999996199 6.0 -0.8741282451013338
2.99999999999696 6.0 -0.8734211901845208
3.499999999997719 6.0 -0.8713832031738646
3.99999999999848 6.0 -0.868254618970345
4.49999999999924 6.0 -0.8644356732181533

CELLS 90 270
2 0 8
2 8 9
2 9 10
2 10 11
2 11 12
2 12 13
2 13 14
2 14 15
2 15 16
2 16 2
2 1 17
2 17 18
2 18 19
2 19 20
2 20 21
2 21 22
2 22 23
2 23 24
2 24 25
2 25 3
2 2 26
2 26 27
2 27 28
2 28 29
2 29 30
2 30 31
2 31 32
2 32 33
2 33 34
2 34 3
2 2 35
2 35 36
2 36 37
2 37 38
2 38 39
2 39 40
2 40 41
2 41 42
2 42 43
2 43 4
2 3 44
2 44 45
2 45 46
2 46 47
2 47 48
2 48 49
2 49 50
2 50 51
2 51 52
2 52 5
2 4 53
2 53 54
2 54 55
2 55 56
2 56 57
2 57 58
2 58 59
2 59 60
2 60 61
2 61 5
2 4 62
2 62 63
2 63 64
2 64 65
2 65 66
2 66 67
2 67 68
2 68 69
2 69 70
2 70 6
2 5 71
2 71 72
2 72 73
2 73 74
2 74 75
2 75 76
2 76 77
2 77 78
2 78 79
2 79 7
2 6 80
2 80 81
2 81 82
2 82 83
2 83 84
2 84 85
2 85 86
2 86 87
2 87 88
2 88 7

CELL_TYPES 90
3
3
3
3
3
3
3
3
3
3
3
3
3
3
3
3
3
3
3
3
3
3
3
3
3
3
3
3
3
3
3
3
3
3
3
3
3
3
3
3
3
3
3
3
3
3
3
3
3
3
3
3
3
3
3
3
3
3
3
3
3
3
3
3
3
3
3
3
3
3
3
3
3
3
3
3
3
3
3
3
3
3
3
3
3
3
3
3
3
3

POINT_DATA 89
SCALARS MODE1_4.1397_Hz float 1
LOOKUP_TABLE default
0.0
0.0
0.00532775190803149
0.005327589472674017
0.0179475053740432
0.017947021570012423
0.03346414890745492
0.033463342123790124
6.105354647284183e-05
0.00024075475718411983
0.0005339148976839847
0.0009353465214699194
0.0014398648402476023
0.002042289602927627
0.0027374474589831744
0.0035201747818616874
0.004385320928119086
6.105113377925533e-05
0.00024074545532586124
0.0005338947544378603
0.0009353121099976163
0.0014398132601824627
0.0020422184813951184
0.002737354951541405
0.003520059573350861
0.004385182233411188
0.005376995193150051
0.005419964990461743
0.005453160013462495
0.005474073459695771
0.0054811990266998385
0.005474034712125061
0.005453084098477539
0.005419855045850743
0.0053768559004956345
0.00634240856518696
0.007424469322148707
0.008569194596419137
0.009771879776662119
0.011027860594831107
0.012332518770685955
0.0136812879067905
0.015069659612299413
0.01649318983408696
0.006342220653740628
0.007424252781986479
0.008568946901971514
0.009771599029663394
0.011027545524420162
0.012332168733352529
0.013680902886161148
0.015069240218759945
0.016492737304241452
0.018053640704819695
0.01815180395525224
0.018230286591685047
0.01828071106952104
0.018298044981691474
0.018280610179675683
0.01823008588361373
0.018151505513652442
0.01805324759069362
0.01942848970935473
0.020932822097088858
0.022457449683283844
0.023999417997419118
0.025555878111994276
0.027124093883732197
0.028701449263030143
0.03028545565881326
0.031873759346508296
0.019427974546857723
0.020932273578820326
0.022456866485790674
0.02399879946949376
0.025555224272905963
0.027123405421293184
0.028700727531497047
0.03028470267662645
0.031872977793875636
0.03361752748286824
0.03376586050255802
0.033887376489755545
0.033966500550115936
0.0339938761983852
0.03396637961828692
0.03388712456787251
0.0337654574044023
0.03361694284737263

