# vtk DataFile Version 2.0
mesh vtk view
ASCII
DATASET UNSTRUCTURED_GRID
POINTS 89 double
0.0 0.0 0.0
5.0 0.0 0.0
-1.034295904639877e-16 2.0 -0.13699933477795256
5.0 2.0 -0.1369951578687604
-1.2789384870391811e-16 4.0 -0.4615072810468251
5.0 4.0 -0.4614948403717479
-1.2921410476963406e-16 6.0 -0.8605066861916978
5.0 6.0 -0.8604859403260315
-2.5286414234861474e-18 0.1999999999996283 -0.0015699483378730753
-9.255399373142227e-18 0.3999999999991138 -0.006190836613305937
-1.9323073062684747e-17 0.59999999999853 -0.013729240226159603
-3.1406771634983076e-17 0.7999999999979462 -0.02405176769494078
-4.463938071825981e-17 0.9999999999973842 -0.037025095892081195
-5.846063009291852e-17 1.19999999999789 -0.05251601836099611
-7.212925225813562e-17 1.399999999998418 -0.07039150608813875
-8.503859340997829e-17 1.599999999998945 -0.0905187801050148
-9.5333520249172e-17 1.799999999999472 -0.11276539529449076
5.0 0.1999999999996283 -0.0015698862971808508
5.0 0.3999999999991138 -0.006190597422665002
5.0 0.59999999999853 -0.013728722256973547
5.0 0.7999999999979462 -0.024050882828510128
5.0 0.9999999999973842 -0.03702376954754903
5.0 1.19999999999789 -0.05251418952158875
5.0 1.399999999998418 -0.0703891273253504
5.0 1.599999999998945 -0.09051581760045069
5.0 1.799999999999472 -0.11276182885914479
0.49999999999959427 2.0 -0.13826559068100128
0.9999999999984119 2.0 -0.13937052832615907
1.499999999996952 2.0 -0.14022411463189272
1.999999999995508 2.0 -0.1407618889636055
2.499999999996199 2.0 -0.14094511782942437
2.99999999999696 2.0 -0.14076089259750155
3.499999999997719 2.0 -0.14022216253227954
3.99999999999848 2.0 -0.13936770117901906
4.49999999999924 2.0 -0.1382620088698877
-1.1151651677492343e-16 2.2 -0.16309050596195035
-1.1686336177290451e-16 2.4 -0.190914925426681
-1.2271259942173266e-16 2.6 -0.2203507181936349
-1.253418244343329e-16 2.8 -0.25127690854274015
-1.2773458684740391e-16 3.0 -0.28357355815279983
-1.3028146045039412e-16 3.2 -0.3171219112462102
-1.3071095974427016e-16 3.4 -0.35180454617461276
-1.2928999815969194e-16 3.6 -0.3875055328876991
-1.2934455447271055e-16 3.8 -0.4241105957336646
5.0 2.2 -0.16308567395333037
5.0 2.4 -0.19090935725108085
5.0 2.6 -0.22034434890783888
5.0 2.8 -0.2512696893342015
5.0 3.0 -0.2835654563422327
5.0 3.2 -0.3171129102862078
5.0 3.4 -0.3517946456441437
5.0 3.6 -0.3874947484823985
5.0 3.8 -0.4240989592519229
0.49999999999959427 4.0 -0.46423647526679207
0.9999999999984119 4.0 -0.4667606731350575
1.4999999999969518 4.0 -0.4687787980719011
1.9999999999955078 4.0 -0.47007542750196946
2.499999999996199 4.0 -0.47052115667206634
2.99999999999696 4.0 -0.4700728331916603
3.499999999997719 4.0 -0.4687736370072101
3.99999999999848 4.0 -0.4667529989224912
4.49999999999924 4.0 -0.46422636661783584
-1.25697714489733e-16 4.2 -0.4995897353834073
-1.25851294536668e-16 4.4 -0.5382725682108562
-1.23619253048331e-16 4.6 -0.5774772775701559
-1.2319211370514813e-16 4.8 -0.6171278913622057
-1.236075066745687e-16 5.0 -0.6571511514512812
-1.2409244253295268e-16 5.2 -0.6974766998673991
-1.251245675568759e-16 5.4 -0.7380372667636321
-1.264631040548339e-16 5.6 -0.7787688597980551
-1.274270499522377e-16 5.8 -0.8196109546244988
5.0 4.2 -0.4995764883477699
5.0 4.4 -0.5382584634553796
5.0 4.6 -0.5774622810631886
5.0 4.8 -0.6171119863584108
5.0 5.0 -0.6571343384461532
5.0 5.2 -0.6974589965475388
5.0 5.4 -0.738018707952781
5.0 5.6 -0.7787494973989657
5.0 5.8 -0.8195908575568018
0.49999999999959427 6.0 -0.8644507067023259
0.9999999999984119 6.0 -0.8682649843514917
1.4999999999969518 6.0 -0.8713896811651424
1.9999999999955078 6.0 -0.8734242998601238
2.499999999996199 6.0 -0.8741282451013336
2.99999999999696 6.0 -0.8734211901845206
3.499999999997719 6.0 -0.8713832031738643
3.99999999999848 6.0 -0.8682546189703447
4.49999999999924 6.0 -0.8644356732181531

CELLS 90 270
2 0 8
2 8 9
2 9 10
2 10 11
2 11 12
2 12 13
2 13 14
2 14 15
2 15 16
2 16 2
2 1 17
2 17 18
2 18 19
2 19 20
2 20 21
2 21 22
2 22 23
2 23 24
2 24 25
2 25 3
2 2 26
2 26 27
2 27 28
2 28 29
2 29 30
2 30 31
2 31 32
2 32 33
2 33 34
2 34 3
2 2 35
2 35 36
2 36 37
2 37 38
2 38 39
2 39 40
2 40 41
2 41 42
2 42 43
2 43 4
2 3 44
2 44 45
2 45 46
2 46 47
2 47 48
2 48 49
2 49 50
2 50 51
2 51 52
2 52 5
2 4 53
2 53 54
2 54 55
2 55 56
2 56 57
2 57 58
2 58 59
2 59 60
2 60 61
2 61 5
2 4 62
2 62 63
2 63 64
2 64 65
2 65 66
2 66 67
2 67 68
2 68 69
2 69 70
2 70 6
2 5 71
2 71 72
2 72 73
2 73 74
2 74 75
2 75 76
2 76 77
2 77 78
2 78 79
2 79 7
2 6 80
2 80 81
2 81 82
2 82 83
2 83 84
2 84 85
2 85 86
2 86 87
2 87 88
2 88 7

CELL_TYPES 90
3
3
3
3
3
3
3
3
3
3
3
3
3
3
3
3
3
3
3
3
3
3
3
3
3
3
3
3
3
3
3
3
3
3
3
3
3
3
3
3
3
3
3
3
3
3
3
3
3
3
3
3
3
3
3
3
3
3
3
3
3
3
3
3
3
3
3
3
3
3
3
3
3
3
3
3
3
3
3
3
3
3
3
3
3
3
3
3
3
3

POINT_DATA 89
SCALARS MODE1_4.1397_Hz float 1
LOOKUP_TABLE default
0.0
0.0
0.00532775190803149
0.005327589472674017
0.0179475053740432
0.017947021570012423
0.03346414890745492
0.033463342123790124
6.105354647284183e-05
0.00024075475718411983
0.0005339148976839847
0.0009353465214699194
0.0014398648402476023
0.002042289602927627
0.0027374474589831744
0.0035201747818616874
0.004385320928119086
6.105113377925533e-05
0.00024074545532586124
0.0005338947544378603
0.0009353121099976163
0.0014398132601824627
0.0020422184813951184
0.002737354951541405
0.003520059573350861
0.004385182233411188
0.005376995193150051
0.005419964990461743
0.005453160013462495
0.005474073459695771
0.0054811990266998385
0.005474034712125061
0.005453084098477539
0.005419855045850743
0.0053768559004956345
0.00634240856518696
0.007424469322148707
0.008569194596419137
0.009771879776662119
0.011027860594831107
0.012332518770685955
0.0136812879067905
0.015069659612299413
0.01649318983408696
0.006342220653740628
0.007424252781986479
0.008568946901971514
0.009771599029663394
0.011027545524420162
0.012332168733352529
0.013680902886161148
0.015069240218759945
0.016492737304241452
0.018053640704819695
0.01815180395525224
0.018230286591685047
0.01828071106952104
0.018298044981691474
0.018280610179675683
0.01823008588361373
0.018151505513652442
0.01805324759069362
0.01942848970935473
0.020932822097088858
0.022457449683283844
0.023999417997419118
0.025555878111994276
0.027124093883732197
0.028701449263030143
0.03028545565881326
0.031873759346508296
0.019427974546857723
0.020932273578820326
0.022456866485790674
0.02399879946949376
0.025555224272905963
0.027123405421293184
0.028700727531497047
0.03028470267662645
0.031872977793875636
0.03361752748286824
0.03376586050255802
0.033887376489755545
0.033966500550115936
0.0339938761983852
0.03396637961828692
0.03388712456787251
0.0337654574044023
0.03361694284737263

