# vtk DataFile Version 2.0
mesh vtk view
ASCII
DATASET UNSTRUCTURED_GRID
POINTS 89 double
0.0 0.0 0.0
5.0 0.0 0.0
1.3790612061865025e-16 2.0 0.18266577970393674
5.0 2.0 0.18266021049168055
1.7052513160522416e-16 4.0 0.6153430413957668
5.0 4.0 0.6153264538289972
1.7228547302617876e-16 6.0 1.147342248255597
5.0 6.0 1.1473145871013755
3.37152189798153e-18 0.1999999999996283 0.0020932644504974337
1.234053249752297e-17 0.3999999999991138 0.008254448817741249
2.5764097416912994e-17 0.59999999999853 0.01830565363487947
4.187569551331077e-17 0.7999999999979462 0.03206902359325437
5.951917429101309e-17 0.9999999999973842 0.049366794522774926
7.794750679055802e-17 1.19999999999789 0.07002135781466148
9.617233634418083e-17 1.399999999998418 0.09385534145085167
1.133847912133044e-16 1.599999999998945 0.1206917068066864
1.2711136033222935e-16 1.799999999999472 0.15035386039265433
5.0 0.1999999999996283 0.002093181729574468
5.0 0.3999999999991138 0.00825412989688667
5.0 0.59999999999853 0.018304963009298063
5.0 0.7999999999979462 0.03206784377134683
5.0 0.9999999999973842 0.04936502606339871
5.0 1.19999999999789 0.07001891936211833
5.0 1.399999999998418 0.09385216976713387
5.0 1.599999999998945 0.12068775680060093
5.0 1.799999999999472 0.1503491051455264
0.49999999999959455 2.0 0.1843541209080017
0.9999999999984122 2.0 0.18582737110154543
1.4999999999969522 2.0 0.18696548617585693
1.9999999999955083 2.0 0.1876825186181407
2.499999999996199 2.0 0.18792682377256584
2.99999999999696 2.0 0.18768119013000206
3.499999999997719 2.0 0.18696288337637273
3.99999999999848 2.0 0.18582360157202543
4.49999999999924 2.0 0.18434934515985027
1.486886890332312e-16 2.2 0.21745400794926714
1.5581781569720603e-16 2.4 0.2545532339022413
1.636167992289769e-16 2.6 0.2938009575915132
1.671224325791105e-16 2.8 0.33503587805698687
1.7031278246320523e-16 3.0 0.3780980775370664
1.7370861393385882e-16 3.2 0.4228292149949469
1.742812796590269e-16 3.4 0.46907272823281704
1.723866642129226e-16 3.6 0.5166740438502655
1.7245940596361409e-16 3.8 0.5654807943115528
5.0 2.2 0.21744756527110717
5.0 2.4 0.2545458096681078
5.0 2.6 0.2937924652104518
5.0 2.8 0.33502625244560197
5.0 3.0 0.37808727512297685
5.0 3.2 0.42281721371494374
5.0 3.4 0.46905952752552493
5.0 3.6 0.516659664643198
5.0 3.8 0.5654652790025639
0.49999999999959455 4.0 0.6189819670223894
0.9999999999984123 4.0 0.6223475641800766
1.4999999999969522 4.0 0.6250383974292014
1.9999999999955083 4.0 0.6267672366692927
2.499999999996199 4.0 0.6273615422294219
2.99999999999696 4.0 0.6267637775888805
3.499999999997719 4.0 0.6250315160096135
3.99999999999848 4.0 0.622337331896655
4.49999999999924 4.0 0.6189684888237811
1.6759695265297734e-16 4.2 0.6661196471778763
1.6780172604889068e-16 4.4 0.7176967576144749
1.6482567073110798e-16 4.6 0.7699697034268744
1.6425615160686417e-16 4.8 0.822837188482941
1.6481000889942493e-16 5.0 0.876201535268375
1.654565900439369e-16 5.2 0.9299689331565323
1.6683275674250118e-16 5.4 0.9840496890181761
1.6861747207311187e-16 5.6 1.0383584797307401
1.6990273326965028e-16 5.8 1.0928146061659985
5.0 4.2 0.6661019844636932
5.0 4.4 0.7176779512738396
5.0 4.6 0.7699497080842514
5.0 4.8 0.8228159818112145
5.0 5.0 0.8761791179282042
5.0 5.2 0.9299453287300518
5.0 5.4 0.9840249439370413
5.0 5.6 1.038332663198621
5.0 5.8 1.0927878100757358
0.49999999999959455 6.0 1.1526009422697678
0.9999999999984123 6.0 1.157686645801989
1.4999999999969522 6.0 1.1618529082201898
1.9999999999955083 6.0 1.1645657331468318
2.499999999996199 6.0 1.1655043268017782
2.99999999999696 6.0 1.1645615869126942
3.499999999997719 6.0 1.1618442708984857
3.99999999999848 6.0 1.157672825293793
4.49999999999924 6.0 1.152580897624204

CELLS 90 270
2 0 8
2 8 9
2 9 10
2 10 11
2 11 12
2 12 13
2 13 14
2 14 15
2 15 16
2 16 2
2 1 17
2 17 18
2 18 19
2 19 20
2 20 21
2 21 22
2 22 23
2 23 24
2 24 25
2 25 3
2 2 26
2 26 27
2 27 28
2 28 29
2 29 30
2 30 31
2 31 32
2 32 33
2 33 34
2 34 3
2 2 35
2 35 36
2 36 37
2 37 38
2 38 39
2 39 40
2 40 41
2 41 42
2 42 43
2 43 4
2 3 44
2 44 45
2 45 46
2 46 47
2 47 48
2 48 49
2 49 50
2 50 51
2 51 52
2 52 5
2 4 53
2 53 54
2 54 55
2 55 56
2 56 57
2 57 58
2 58 59
2 59 60
2 60 61
2 61 5
2 4 62
2 62 63
2 63 64
2 64 65
2 65 66
2 66 67
2 67 68
2 68 69
2 69 70
2 70 6
2 5 71
2 71 72
2 72 73
2 73 74
2 74 75
2 75 76
2 76 77
2 77 78
2 78 79
2 79 7
2 6 80
2 80 81
2 81 82
2 82 83
2 83 84
2 84 85
2 85 86
2 86 87
2 87 88
2 88 7

CELL_TYPES 90
3
3
3
3
3
3
3
3
3
3
3
3
3
3
3
3
3
3
3
3
3
3
3
3
3
3
3
3
3
3
3
3
3
3
3
3
3
3
3
3
3
3
3
3
3
3
3
3
3
3
3
3
3
3
3
3
3
3
3
3
3
3
3
3
3
3
3
3
3
3
3
3
3
3
3
3
3
3
3
3
3
3
3
3
3
3
3
3
3
3

POINT_DATA 89
SCALARS MODE1_4.1397_Hz float 1
LOOKUP_TABLE default
0.0
0.0
0.00532775190803149
0.005327589472674017
0.0179475053740432
0.017947021570012423
0.03346414890745492
0.033463342123790124
6.105354647284183e-05
0.00024075475718411983
0.0005339148976839847
0.0009353465214699194
0.0014398648402476023
0.002042289602927627
0.0027374474589831744
0.0035201747818616874
0.004385320928119086
6.105113377925533e-05
0.00024074545532586124
0.0005338947544378603
0.0009353121099976163
0.0014398132601824627
0.0020422184813951184
0.002737354951541405
0.003520059573350861
0.004385182233411188
0.005376995193150051
0.005419964990461743
0.005453160013462495
0.005474073459695771
0.0054811990266998385
0.005474034712125061
0.005453084098477539
0.005419855045850743
0.0053768559004956345
0.00634240856518696
0.007424469322148707
0.008569194596419137
0.009771879776662119
0.011027860594831107
0.012332518770685955
0.0136812879067905
0.015069659612299413
0.01649318983408696
0.006342220653740628
0.007424252781986479
0.008568946901971514
0.009771599029663394
0.011027545524420162
0.012332168733352529
0.013680902886161148
0.015069240218759945
0.016492737304241452
0.018053640704819695
0.01815180395525224
0.018230286591685047
0.01828071106952104
0.018298044981691474
0.018280610179675683
0.01823008588361373
0.018151505513652442
0.01805324759069362
0.01942848970935473
0.020932822097088858
0.022457449683283844
0.023999417997419118
0.025555878111994276
0.027124093883732197
0.028701449263030143
0.03028545565881326
0.031873759346508296
0.019427974546857723
0.020932273578820326
0.022456866485790674
0.02399879946949376
0.025555224272905963
0.027123405421293184
0.028700727531497047
0.03028470267662645
0.031872977793875636
0.03361752748286824
0.03376586050255802
0.033887376489755545
0.033966500550115936
0.0339938761983852
0.03396637961828692
0.03388712456787251
0.0337654574044023
0.03361694284737263

