# vtk DataFile Version 2.0
mesh vtk view
ASCII
DATASET UNSTRUCTURED_GRID
POINTS 89 double
0.0 0.0 0.0
5.0 0.0 0.0
6.895306030932513e-17 2.0 0.09133288985196837
5.0 2.0 0.09133010524584027
8.526256580261208e-17 4.0 0.3076715206978834
5.0 4.0 0.3076632269144986
8.614273651308938e-17 6.0 0.5736711241277985
5.0 6.0 0.5736572935506877
1.685760948990765e-18 0.1999999999996283 0.0010466322252487168
6.170266248761485e-18 0.3999999999991138 0.0041272244088706245
1.2882048708456497e-17 0.59999999999853 0.009152826817439735
2.0937847756655384e-17 0.7999999999979462 0.016034511796627186
2.9759587145506545e-17 0.9999999999973842 0.024683397261387463
3.897375339527901e-17 1.19999999999789 0.03501067890733074
4.808616817209041e-17 1.399999999998418 0.046927670725425835
5.66923956066522e-17 1.599999999998945 0.0603458534033432
6.355568016611467e-17 1.799999999999472 0.07517693019632717
5.0 0.1999999999996283 0.001046590864787234
5.0 0.3999999999991138 0.004127064948443335
5.0 0.59999999999853 0.009152481504649031
5.0 0.7999999999979462 0.016033921885673416
5.0 0.9999999999973842 0.024682513031699355
5.0 1.19999999999789 0.03500945968105917
5.0 1.399999999998418 0.046926084883566935
5.0 1.599999999998945 0.06034387840030046
5.0 1.799999999999472 0.0751745525727632
0.49999999999959444 2.0 0.09217706045400086
0.9999999999984122 2.0 0.09291368555077271
1.499999999996952 2.0 0.09348274308792846
1.999999999995508 2.0 0.09384125930907035
2.499999999996199 2.0 0.09396341188628292
2.99999999999696 2.0 0.09384059506500103
3.499999999997719 2.0 0.09348144168818637
3.99999999999848 2.0 0.09291180078601272
4.49999999999924 2.0 0.09217467257992513
7.43443445166156e-17 2.2 0.10872700397463357
7.790890784860301e-17 2.4 0.12727661695112066
8.180839961448845e-17 2.6 0.1469004787957566
8.356121628955525e-17 2.8 0.16751793902849343
8.515639123160261e-17 3.0 0.1890490387685332
8.685430696692941e-17 3.2 0.21141460749747346
8.714063982951344e-17 3.4 0.23453636411640852
8.61933321064613e-17 3.6 0.25833702192513275
8.622970298180704e-17 3.8 0.2827403971557764
5.0 2.2 0.10872378263555359
5.0 2.4 0.1272729048340539
5.0 2.6 0.1468962326052259
5.0 2.8 0.16751312622280098
5.0 3.0 0.18904363756148843
5.0 3.2 0.21140860685747187
5.0 3.4 0.23452976376276247
5.0 3.6 0.258329832321599
5.0 3.8 0.28273263950128197
0.4999999999995945 4.0 0.3094909835111947
0.9999999999984122 4.0 0.3111737820900383
1.499999999996952 4.0 0.3125191987146007
1.999999999995508 4.0 0.31338361833464634
2.499999999996199 4.0 0.31368077111471093
2.99999999999696 4.0 0.31338188879444023
3.499999999997719 4.0 0.31251575800480674
3.99999999999848 4.0 0.3111686659483275
4.49999999999924 4.0 0.30948424441189054
8.379847632648867e-17 4.2 0.33305982358893815
8.390086302444534e-17 4.4 0.35884837880723747
8.241283536555399e-17 4.6 0.3849848517134372
8.212807580343208e-17 4.8 0.4114185942414705
8.240500444971247e-17 5.0 0.4381007676341875
8.272829502196845e-17 5.2 0.46498446657826614
8.341637837125059e-17 5.4 0.49202484450908807
8.430873603655593e-17 5.6 0.5191792398653701
8.495136663482514e-17 5.8 0.5464073030829992
5.0 4.2 0.3330509922318466
5.0 4.4 0.3588389756369198
5.0 4.6 0.3849748540421257
5.0 4.8 0.41140799090560726
5.0 5.0 0.4380895589641021
5.0 5.2 0.4649726643650259
5.0 5.4 0.49201247196852066
5.0 5.6 0.5191663315993105
5.0 5.8 0.5463939050378679
0.4999999999995945 6.0 0.5763004711348839
0.9999999999984122 6.0 0.5788433229009945
1.499999999996952 6.0 0.5809264541100949
1.999999999995508 6.0 0.5822828665734159
2.499999999996199 6.0 0.5827521634008891
2.99999999999696 6.0 0.5822807934563471
3.499999999997719 6.0 0.5809221354492429
3.99999999999848 6.0 0.5788364126468964
4.49999999999924 6.0 0.576290448812102

CELLS 90 270
2 0 8
2 8 9
2 9 10
2 10 11
2 11 12
2 12 13
2 13 14
2 14 15
2 15 16
2 16 2
2 1 17
2 17 18
2 18 19
2 19 20
2 20 21
2 21 22
2 22 23
2 23 24
2 24 25
2 25 3
2 2 26
2 26 27
2 27 28
2 28 29
2 29 30
2 30 31
2 31 32
2 32 33
2 33 34
2 34 3
2 2 35
2 35 36
2 36 37
2 37 38
2 38 39
2 39 40
2 40 41
2 41 42
2 42 43
2 43 4
2 3 44
2 44 45
2 45 46
2 46 47
2 47 48
2 48 49
2 49 50
2 50 51
2 51 52
2 52 5
2 4 53
2 53 54
2 54 55
2 55 56
2 56 57
2 57 58
2 58 59
2 59 60
2 60 61
2 61 5
2 4 62
2 62 63
2 63 64
2 64 65
2 65 66
2 66 67
2 67 68
2 68 69
2 69 70
2 70 6
2 5 71
2 71 72
2 72 73
2 73 74
2 74 75
2 75 76
2 76 77
2 77 78
2 78 79
2 79 7
2 6 80
2 80 81
2 81 82
2 82 83
2 83 84
2 84 85
2 85 86
2 86 87
2 87 88
2 88 7

CELL_TYPES 90
3
3
3
3
3
3
3
3
3
3
3
3
3
3
3
3
3
3
3
3
3
3
3
3
3
3
3
3
3
3
3
3
3
3
3
3
3
3
3
3
3
3
3
3
3
3
3
3
3
3
3
3
3
3
3
3
3
3
3
3
3
3
3
3
3
3
3
3
3
3
3
3
3
3
3
3
3
3
3
3
3
3
3
3
3
3
3
3
3
3

POINT_DATA 89
SCALARS MODE1_4.1397_Hz float 1
LOOKUP_TABLE default
0.0
0.0
0.00532775190803149
0.005327589472674017
0.0179475053740432
0.017947021570012423
0.03346414890745492
0.033463342123790124
6.105354647284183e-05
0.00024075475718411983
0.0005339148976839847
0.0009353465214699194
0.0014398648402476023
0.002042289602927627
0.0027374474589831744
0.0035201747818616874
0.004385320928119086
6.105113377925533e-05
0.00024074545532586124
0.0005338947544378603
0.0009353121099976163
0.0014398132601824627
0.0020422184813951184
0.002737354951541405
0.003520059573350861
0.004385182233411188
0.005376995193150051
0.005419964990461743
0.005453160013462495
0.005474073459695771
0.0054811990266998385
0.005474034712125061
0.005453084098477539
0.005419855045850743
0.0053768559004956345
0.00634240856518696
0.007424469322148707
0.008569194596419137
0.009771879776662119
0.011027860594831107
0.012332518770685955
0.0136812879067905
0.015069659612299413
0.01649318983408696
0.006342220653740628
0.007424252781986479
0.008568946901971514
0.009771599029663394
0.011027545524420162
0.012332168733352529
0.013680902886161148
0.015069240218759945
0.016492737304241452
0.018053640704819695
0.01815180395525224
0.018230286591685047
0.01828071106952104
0.018298044981691474
0.018280610179675683
0.01823008588361373
0.018151505513652442
0.01805324759069362
0.01942848970935473
0.020932822097088858
0.022457449683283844
0.023999417997419118
0.025555878111994276
0.027124093883732197
0.028701449263030143
0.03028545565881326
0.031873759346508296
0.019427974546857723
0.020932273578820326
0.022456866485790674
0.02399879946949376
0.025555224272905963
0.027123405421293184
0.028700727531497047
0.03028470267662645
0.031872977793875636
0.03361752748286824
0.03376586050255802
0.033887376489755545
0.033966500550115936
0.0339938761983852
0.03396637961828692
0.03388712456787251
0.0337654574044023
0.03361694284737263

