# vtk DataFile Version 2.0
mesh vtk view
ASCII
DATASET UNSTRUCTURED_GRID
POINTS 89 double
0.0 0.0 0.0
5.0 0.0 0.0
0.0 2.0 0.0
5.0 2.0 0.0
0.0 4.0 0.0
5.0 4.0 0.0
0.0 6.0 0.0
5.0 6.0 0.0
0.0 0.1999999999996283 0.0
0.0 0.3999999999991138 0.0
0.0 0.59999999999853 0.0
0.0 0.7999999999979462 0.0
0.0 0.9999999999973842 0.0
0.0 1.19999999999789 0.0
0.0 1.399999999998418 0.0
0.0 1.599999999998945 0.0
0.0 1.799999999999472 0.0
5.0 0.1999999999996283 0.0
5.0 0.3999999999991138 0.0
5.0 0.59999999999853 0.0
5.0 0.7999999999979462 0.0
5.0 0.9999999999973842 0.0
5.0 1.19999999999789 0.0
5.0 1.399999999998418 0.0
5.0 1.599999999998945 0.0
5.0 1.799999999999472 0.0
0.4999999999995944 2.0 0.0
0.999999999998412 2.0 0.0
1.499999999996952 2.0 0.0
1.999999999995508 2.0 0.0
2.499999999996199 2.0 0.0
2.99999999999696 2.0 0.0
3.499999999997719 2.0 0.0
3.99999999999848 2.0 0.0
4.49999999999924 2.0 0.0
0.0 2.2 0.0
0.0 2.4 0.0
0.0 2.6 0.0
0.0 2.8 0.0
0.0 3.0 0.0
0.0 3.2 0.0
0.0 3.4 0.0
0.0 3.6 0.0
0.0 3.8 0.0
5.0 2.2 0.0
5.0 2.4 0.0
5.0 2.6 0.0
5.0 2.8 0.0
5.0 3.0 0.0
5.0 3.2 0.0
5.0 3.4 0.0
5.0 3.6 0.0
5.0 3.8 0.0
0.4999999999995944 4.0 0.0
0.999999999998412 4.0 0.0
1.499999999996952 4.0 0.0
1.999999999995508 4.0 0.0
2.499999999996199 4.0 0.0
2.99999999999696 4.0 0.0
3.499999999997719 4.0 0.0
3.99999999999848 4.0 0.0
4.49999999999924 4.0 0.0
0.0 4.2 0.0
0.0 4.4 0.0
0.0 4.6 0.0
0.0 4.8 0.0
0.0 5.0 0.0
0.0 5.2 0.0
0.0 5.4 0.0
0.0 5.6 0.0
0.0 5.8 0.0
5.0 4.2 0.0
5.0 4.4 0.0
5.0 4.6 0.0
5.0 4.8 0.0
5.0 5.0 0.0
5.0 5.2 0.0
5.0 5.4 0.0
5.0 5.6 0.0
5.0 5.8 0.0
0.4999999999995944 6.0 0.0
0.999999999998412 6.0 0.0
1.499999999996952 6.0 0.0
1.999999999995508 6.0 0.0
2.499999999996199 6.0 0.0
2.99999999999696 6.0 0.0
3.499999999997719 6.0 0.0
3.99999999999848 6.0 0.0
4.49999999999924 6.0 0.0

CELLS 90 270
2 0 8
2 8 9
2 9 10
2 10 11
2 11 12
2 12 13
2 13 14
2 14 15
2 15 16
2 16 2
2 1 17
2 17 18
2 18 19
2 19 20
2 20 21
2 21 22
2 22 23
2 23 24
2 24 25
2 25 3
2 2 26
2 26 27
2 27 28
2 28 29
2 29 30
2 30 31
2 31 32
2 32 33
2 33 34
2 34 3
2 2 35
2 35 36
2 36 37
2 37 38
2 38 39
2 39 40
2 40 41
2 41 42
2 42 43
2 43 4
2 3 44
2 44 45
2 45 46
2 46 47
2 47 48
2 48 49
2 49 50
2 50 51
2 51 52
2 52 5
2 4 53
2 53 54
2 54 55
2 55 56
2 56 57
2 57 58
2 58 59
2 59 60
2 60 61
2 61 5
2 4 62
2 62 63
2 63 64
2 64 65
2 65 66
2 66 67
2 67 68
2 68 69
2 69 70
2 70 6
2 5 71
2 71 72
2 72 73
2 73 74
2 74 75
2 75 76
2 76 77
2 77 78
2 78 79
2 79 7
2 6 80
2 80 81
2 81 82
2 82 83
2 83 84
2 84 85
2 85 86
2 86 87
2 87 88
2 88 7

CELL_TYPES 90
3
3
3
3
3
3
3
3
3
3
3
3
3
3
3
3
3
3
3
3
3
3
3
3
3
3
3
3
3
3
3
3
3
3
3
3
3
3
3
3
3
3
3
3
3
3
3
3
3
3
3
3
3
3
3
3
3
3
3
3
3
3
3
3
3
3
3
3
3
3
3
3
3
3
3
3
3
3
3
3
3
3
3
3
3
3
3
3
3
3

POINT_DATA 89
SCALARS MODE2_15.7142_Hz float 1
LOOKUP_TABLE default
0.0
0.0
0.011193350261151508
0.011192282939548904
0.02762855488280767
0.027628854763382095
0.038230072416478814
0.03823496715987729
0.0001829098691693831
0.0006999618637303263
0.0015036570768711865
0.002546550093667861
0.00378130245866134
0.00516075234087699
0.006637997192509372
0.0081664862098225
0.009700119422428159
0.00018288295262420005
0.0006998624273753522
0.0015034513009118612
0.002546215189299725
0.0037808259086108712
0.0051601311314051984
0.0066372370360154205
0.008165600757827868
0.009699129469312557
0.008985442865459698
0.006778248091822043
0.004547358324790694
0.00228628241046819
5.426052050072751e-07
0.0022852007717661855
0.004546285967730481
0.006777186434667887
0.00898438619930283
0.012726753654081192
0.014384288082025892
0.016126623663507353
0.017915406511308647
0.01971337593395781
0.021484484803845745
0.023194020571584397
0.024808724488390627
0.026296906688605397
0.01272564147007142
0.014383167480565139
0.016125534031290235
0.017914389327537264
0.019712473923250894
0.021483741094079467
0.02319347785954084
0.024808424216117377
0.026296888233361022
0.022867469828458047
0.017651933877556963
0.012032086537025245
0.006104574397152602
2.2694697465202474e-06
0.0061089325886490185
0.012035908407104822
0.017654881145000655
0.022869231463128286
0.028882389824519992
0.030140860992064627
0.03138234808973805
0.03258727146697943
0.03373817578416816
0.03481981124525632
0.03581921121701658
0.03672576520394178
0.037531286302326904
0.028883041385688493
0.030141895534988306
0.031383794837007914
0.032589157141464736
0.03374052421572603
0.03482264300710482
0.03582254329337681
0.03672961069033571
0.03753565413967457
0.03183721491802954
0.024685495070109528
0.016875835868073272
0.008574157742807018
9.20305331500565e-06
0.008591977363695755
0.016891920113206744
0.024698765753240762
0.03184670662057755

