# vtk DataFile Version 2.0
mesh vtk view
ASCII
DATASET UNSTRUCTURED_GRID
POINTS 101 double
-0.002483511121685548 0.0 0.0
2.0 0.0 0.0
0.0199999999999621 -2.517372358852836e-05 0.0
0.03751648887826162 -9.798611236479449e-05 0.0
0.055236124495363886 -0.00021437517273124003 0.0
0.07315878974053228 -0.00037028291427034757 0.0
0.09128418759429018 -0.0005616597509213362 0.0
0.10961176211437587 -0.0007844704053173665 0.0
0.12814062713103358 -0.0010347011622935567 0.0
0.14686950263006793 -0.0013083683181284132 0.0
0.16579665878957311 -0.0016015276729093744 0.0
0.18491986762128382 -0.0019102849145609263 0.0
0.2042363621504371 -0.0022308067445817974 0.0
0.2237428030491534 -0.002559332597440308 0.0
0.24343525261788113 -0.0028921868079011936 0.0
0.26330915598774607 -0.0032257910833270657 0.0
0.2833593293938823 -0.003556677141227448 0.0
0.3035799553464274 -0.003881499376033807 0.0
0.32396458450201493 -0.004197047423264359 0.0
0.3445061440144744 -0.004500258493906389 0.0
0.3651969521195086 -0.004788229356986891 0.0
0.38602873868441934 -0.0050582278539131505 0.0
0.406992671430816 -0.005307703834230992 0.0
0.4280793875159362 -0.005534299408951192 0.0
0.4492790301368298 -0.005735858424513181 0.0
0.4705812898015226 -0.005910435067762966 0.0
0.4919754498925097 -0.00605630151998965 0.0
0.513450436130749 -0.006171954586059417 0.0
0.5349948695328507 -0.006256121232970727 0.0
0.5565971224405888 -0.006307762980691313 0.0
0.5782453771902846 -0.006326079096884489 0.0
0.5999276869801733 -0.006310508556045992 0.0
0.6216320384866483 -0.006260730732607771 0.0
0.6433464157753777 -0.00617666480667419 0.0
0.665058865050771 -0.00605846787019184 0.0
0.6867575597871741 -0.005906531730466867 0.0
0.7084308657875368 -0.005721478416984677 0.0
0.7300674057201443 -0.005504154406405978 0.0
0.7516561226913014 -0.005255623589361809 0.0
0.7731863424216425 -0.004977159011198874 0.0
0.7946478336058984 -0.004670233427088399 0.0
0.8160308660505127 -0.0043365087198593095 0.0
0.8373262662003143 -0.003977824236505519 0.0
0.8585254696845132 -0.003596184106503649 0.0
0.8796205705334312 -0.003193743611821065 0.0
0.9006043667405317 -0.002772794684755612 0.0
0.9214704018693285 -0.0023357506154920533 0.0
0.9422130024315086 -0.0018851300564528002 0.0
0.9628273107909331 -0.0014235404151318627 0.0
0.9833093133779285 -0.0009536607311046431 0.0
1.0036558640292896 -0.0004782241362787722 0.0
1.023864702301503 -1.724273153546488e-13 0.0
1.0439344666376016 0.0004782241359362457 0.0
1.0638647023016585 0.0009536607307668924 0.0
1.0836558640295306 0.001423540414800206 0.0
1.1033093133782295 0.001885130056128474 0.0
1.1228273107912918 0.002335750615176243 0.0
1.142213002431921 0.0027727946844493803 0.0
1.1614704018697901 0.003193743611525367 0.0
1.1806043667410382 0.0035961841062193316 0.0
1.199620570533976 0.003977824236233286 0.0
1.218525469685092 0.0043365087195997905 0.0
1.2373262662009217 0.004670233426842076 0.0
1.2560308660511421 0.0049771590109661 0.0
1.2746478336065454 0.005255623589142839 0.0
1.2931863424223016 0.005504154406200937 0.0
1.3116561226919672 0.005721478416793572 0.0
1.3300674057208097 0.005906531730289592 0.0
1.348430865788198 0.0060584678700281855 0.0
1.3667575597878259 0.006176664806523848 0.0
1.3850588650514097 0.0062607307324703595 0.0
1.4033464157759983 0.006310508555921045 0.0
1.4216320384872485 0.006326079096771483 0.0
1.4399276869807496 0.006307762980589673 0.0
1.4582453771908352 0.006256121232879843 0.0
1.4765971224411114 0.006171954585978672 0.0
1.4949948695333453 0.006056301519918396 0.0
1.5134504361312138 0.005910435067700532 0.0
1.5319754498929439 0.005735858424458896 0.0
1.5505812898019242 0.005534299408904387 0.0
1.5692790301372004 0.00530770383419101 0.0
1.5880793875162753 0.005058227853879355 0.0
1.606992671431125 0.004788229356958665 0.0
1.6260287386846968 0.004500258493883154 0.0
1.645196952119756 0.004197047423245516 0.0
1.664506144014692 0.003881499376018833 0.0
1.6839645845022049 0.003556677141215834 0.0
1.7035799553465885 0.003225791083318337 0.0
1.7233593293940144 0.0028921868078949017 0.0
1.7433091559878515 0.0025593325974362586 0.0
1.7634352526179642 0.002230806744579807 0.0
1.7837428030492233 0.0019102849145606414 0.0
1.8042363621505049 0.001601527672910374 0.0
1.8249198676213512 0.0013083683181303173 0.0
1.8457966587896406 0.0010347011622960074 0.0
1.8668695026301356 0.0007844704053200007 0.0
1.8881406271311034 0.0005616597509238057 0.0
1.9096117621144448 0.0003702829142724385 0.0
1.9312841875943532 0.00021437517273282353 0.0
1.9531587897405873 9.798611236579385e-05 0.0
1.975236124495415 2.5173723588871598e-05 0.0

CELLS 100 300
2 0 2
2 2 3
2 3 4
2 4 5
2 5 6
2 6 7
2 7 8
2 8 9
2 9 10
2 10 11
2 11 12
2 12 13
2 13 14
2 14 15
2 15 16
2 16 17
2 17 18
2 18 19
2 19 20
2 20 21
2 21 22
2 22 23
2 23 24
2 24 25
2 25 26
2 26 27
2 27 28
2 28 29
2 29 30
2 30 31
2 31 32
2 32 33
2 33 34
2 34 35
2 35 36
2 36 37
2 37 38
2 38 39
2 39 40
2 40 41
2 41 42
2 42 43
2 43 44
2 44 45
2 45 46
2 46 47
2 47 48
2 48 49
2 49 50
2 50 51
2 51 52
2 52 53
2 53 54
2 54 55
2 55 56
2 56 57
2 57 58
2 58 59
2 59 60
2 60 61
2 61 62
2 62 63
2 63 64
2 64 65
2 65 66
2 66 67
2 67 68
2 68 69
2 69 70
2 70 71
2 71 72
2 72 73
2 73 74
2 74 75
2 75 76
2 76 77
2 77 78
2 78 79
2 79 80
2 80 81
2 81 82
2 82 83
2 83 84
2 84 85
2 85 86
2 86 87
2 87 88
2 88 89
2 89 90
2 90 91
2 91 92
2 92 93
2 93 94
2 94 95
2 95 96
2 96 97
2 97 98
2 98 99
2 99 100
2 100 1

CELL_TYPES 100
3
3
3
3
3
3
3
3
3
3
3
3
3
3
3
3
3
3
3
3
3
3
3
3
3
3
3
3
3
3
3
3
3
3
3
3
3
3
3
3
3
3
3
3
3
3
3
3
3
3
3
3
3
3
3
3
3
3
3
3
3
3
3
3
3
3
3
3
3
3
3
3
3
3
3
3
3
3
3
3
3
3
3
3
3
3
3
3
3
3
3
3
3
3
3
3
3
3
3
3

POINT_DATA 101
SCALARS MODE2_619.3044_Hz float 1
LOOKUP_TABLE default
0.02667832639425423
0.0
0.00027042069938373756
0.026699083007919962
0.051226201980524154
0.07359708701882048
0.09382103666866715
0.11191006164382647
0.12787948854935227
0.14174868299595036
0.15354173192877954
0.16328807272750234
0.17102307352289706
0.17678857506283804
0.1806334097950444
0.1826139209232872
0.18279451462093835
0.18124829451165347
0.1780578524601111
0.17331632962095828
0.1671289269340401
0.1596151531053225
0.15091228306524565
0.14118081837980806
0.13061329096678734
0.11944868054755584
0.10799616053171027
0.09667354918822504
0.08606517552256139
0.07699038186628254
0.07052139906996478
0.0677930767341908
0.069501413157734
0.07546310527553234
0.0847864704938791
0.09641173806822753
0.10945160536274122
0.12325377272168135
0.13735162014845098
0.15140445605845224
0.16515386844506685
0.17839589591397076
0.19096401355270906
0.2027188105813003
0.21354169713990498
0.22333103645466829
0.23199975169910012
0.23947384093246493
0.24569145754367722
0.2506023455246499
0.25416749795121163
0.2563589555978672
0.25715969339290257
0.2565635628299336
0.2545752729356508
0.25121040379507276
0.24649545700115738
0.24046795850898092
0.23317664320751727
0.224681769745335
0.21505564287344375
0.2043834655890343
0.19276471631338998
0.18031536755705324
0.16717146778713352
0.15349495947738576
0.13948320450631146
0.1253846671393985
0.11152460413669278
0.09834571135528687
0.08646546035877668
0.07673032312149616
0.07018092003459671
0.06776358520223974
0.0697975269831806
0.07570959356788932
0.08439972464774075
0.09476895026186898
0.10595814165819112
0.11735092830459416
0.1285076113813822
0.13910468075092816
0.14889365925404818
0.15767548617693478
0.16528493749394357
0.17158112105142395
0.17644159358226474
0.17975864487127408
0.18143689083568149
0.18139166359648984
0.17954788762881996
0.17583924915808627
0.17020753655747473
0.16260207255394285
0.15297918586723497
0.1413016869830855
0.12753832390979083
0.11166320132919325
0.09365515225078395
0.07349705764895377
0.05117512820322159

