# vtk DataFile Version 2.0
mesh vtk view
ASCII
DATASET UNSTRUCTURED_GRID
POINTS 101 double
0.0007286789968148379 0.0 0.0
2.0 0.0 0.0
0.0199999999999621 -7.344571942171938e-06 0.0
0.03927132100317215 -2.8916036463996826e-05 0.0
0.05857731039598519 -6.402106217119422e-05 0.0
0.07791796364072165 -0.00011196647370329278 0.0
0.09729326910714399 -0.00017205942687854354 0.0
0.11670320477200366 -0.0002436076481133232 0.0
0.1361477350920266 -0.0003259197346482197 0.0
0.15562680805022652 -0.00041830551211573974 0.0
0.1751403523753851 -0.0005200764459891083 0.0
0.19468827493442695 -0.0006305461034577279 0.0
0.21427045829731614 -0.0007490306622830453 0.0
0.23388675847401957 -0.0008748494631992634 0.0
0.2535370028229423 -0.0010073256024363552 0.0
0.27322098813013757 -0.0011457865609589867 0.0
0.2929384788583855 -0.0012895648670331846 0.0
0.31268920556512564 -0.0014379987887549184 0.0
0.3324728634880995 -0.0015904330532003636 0.0
0.3522891112973228 -0.0017462195888858839 0.0
0.3721375700118717 -0.001904718288258256 0.0
0.392017822079772 -0.002065297786971767 0.0
0.411929410619087 -0.0022273362567487814 0.0
0.43187183881812236 -0.002390222208663954 0.0
0.4518445694924551 -0.002553355303740167 0.0
0.4718470247963032 -0.0027161471677959502 0.0
0.4918785860855413 -0.0028780222075399952 0.0
0.5119385939294767 -0.0030384184249682617 0.0
0.5320263482682823 -0.0031967882271831164 0.0
0.5521411087127908 -0.00335259922882207 0.0
0.5722820949831425 -0.0035053350443556646 0.0
0.5924484874825858 -0.0036544960675902924 0.0
0.6126394280025185 -0.0037996002357917357 0.0
0.6328540205546727 -0.00394018377592922 0.0
0.6530913323261468 -0.004075801930627593 0.0
0.6733503947527997 -0.0042060296615067175 0.0
0.69363020470634 -0.004330462327682397 0.0
0.7139297257902629 -0.004448716337301805 0.0
0.7342478897396119 -0.004560429770088447 0.0
0.7545835979193826 -0.0046652629689771415 0.0
0.774935722916219 -0.00476289909902774 0.0
0.7953031102179093 -0.0048530446719179466 0.0
0.8156845799750316 -0.004935430034429688 0.0
0.8360789288389778 -0.005009809819460338 0.0
0.8564849318704499 -0.005075963358209414 0.0
0.8769013445124056 -0.005133695052312814 0.0
0.8973269046213255 -0.0051828347048203825 0.0
0.9177603345505704 -0.005223237809037927 0.0
0.9382003432795163 -0.005254785794382028 0.0
0.9586456285820718 -0.005277386228524469 0.0
0.9790948792281151 -0.005290972975232932 0.0
0.9995467772113602 -0.005295506307445468 0.0
1.0199999999970468 -0.005290972975247616 0.0
1.0404532227827594 -0.005277386228553642 0.0
1.0609051207661033 -0.005254785794425409 0.0
1.0813543714122709 -0.0052232378090951385 0.0
1.1017996567149566 -0.005182834704890953 0.0
1.1222396654440376 -0.0051336950523961904 0.0
1.1426730953734208 -0.0050759633583049605 0.0
1.1630986554824831 -0.005009809819567347 0.0
1.1835150681245843 -0.00493543003454739 0.0
1.2039210711562058 -0.004853044672045497 0.0
1.2243154200203044 -0.004762899099164255 0.0
1.2446968897775805 -0.004665262969121694 0.0
1.2650642770794278 -0.004560429770240061 0.0
1.285416402076423 -0.0044487163374594876 0.0
1.305752110256353 -0.004330462327845138 0.0
1.3260702742058619 -0.004206029661673488 0.0
1.3463697952899465 -0.004075801930797341 0.0
1.3666496052436488 -0.0039401837761009135 0.0
1.386908667670463 -0.0037996002359643585 0.0
1.4071459794420964 -0.003654496067762851 0.0
1.4273605719944102 -0.003505335044527179 0.0
1.4475515125145009 -0.003352599228991609 0.0
1.4677179050141 -0.0031967882273497943 0.0
1.4878588912846045 -0.003038418425131261 0.0
1.5079736517292635 -0.0028780222076985364 0.0
1.5280614060682172 -0.0027161471679493124 0.0
1.548121413912298 -0.0025533553038876973 0.0
1.5681529752016776 -0.002390222208805072 0.0
1.5881554305056649 -0.002227336256882958 0.0
1.6081281611801332 -0.0020652977870985615 0.0
1.6280705893793006 -0.0019047182883772944 0.0
1.6479821779187431 -0.0017462195889968771 0.0
1.6678624299867688 -0.0015904330533030731 0.0
1.6877108887014394 -0.0014379987888492043 0.0
1.70752713651078 -0.001289564867118981 0.0
1.7273107944338668 -0.0011457865610363025 0.0
1.7470615211407183 -0.0010073256025052674 0.0
1.7667790118690734 -0.0008748494632600011 0.0
1.7864629971763706 -0.0007490306623358928 0.0
1.8061132415253798 -0.0006305461035029606 0.0
1.8257295417021562 -0.0005200764460270469 0.0
1.8453117250651123 -0.0004183055121467882 0.0
1.8648596476242179 -0.000325919734672856 0.0
1.8843731919494349 -0.00024360764813209144 0.0
1.9038522649076908 -0.00017205942689206116 0.0
1.9232967952277706 -0.00011196647371228704 0.0
1.94270673089269 -6.402106217648594e-05 0.0
1.9620820363591691 -2.8916036466489068e-05 0.0
1.9814226896039575 -7.344571942836418e-06 0.0

CELLS 100 300
2 0 2
2 2 3
2 3 4
2 4 5
2 5 6
2 6 7
2 7 8
2 8 9
2 9 10
2 10 11
2 11 12
2 12 13
2 13 14
2 14 15
2 15 16
2 16 17
2 17 18
2 18 19
2 19 20
2 20 21
2 21 22
2 22 23
2 23 24
2 24 25
2 25 26
2 26 27
2 27 28
2 28 29
2 29 30
2 30 31
2 31 32
2 32 33
2 33 34
2 34 35
2 35 36
2 36 37
2 37 38
2 38 39
2 39 40
2 40 41
2 41 42
2 42 43
2 43 44
2 44 45
2 45 46
2 46 47
2 47 48
2 48 49
2 49 50
2 50 51
2 51 52
2 52 53
2 53 54
2 54 55
2 55 56
2 56 57
2 57 58
2 58 59
2 59 60
2 60 61
2 61 62
2 62 63
2 63 64
2 64 65
2 65 66
2 66 67
2 67 68
2 68 69
2 69 70
2 70 71
2 71 72
2 72 73
2 73 74
2 74 75
2 75 76
2 76 77
2 77 78
2 78 79
2 79 80
2 80 81
2 81 82
2 82 83
2 83 84
2 84 85
2 85 86
2 86 87
2 87 88
2 88 89
2 89 90
2 90 91
2 91 92
2 92 93
2 93 94
2 94 95
2 95 96
2 96 97
2 97 98
2 98 99
2 99 100
2 100 1

CELL_TYPES 100
3
3
3
3
3
3
3
3
3
3
3
3
3
3
3
3
3
3
3
3
3
3
3
3
3
3
3
3
3
3
3
3
3
3
3
3
3
3
3
3
3
3
3
3
3
3
3
3
3
3
3
3
3
3
3
3
3
3
3
3
3
3
3
3
3
3
3
3
3
3
3
3
3
3
3
3
3
3
3
3
3
3
3
3
3
3
3
3
3
3
3
3
3
3
3
3
3
3
3
3

POINT_DATA 101
SCALARS MODE1_224.6674_Hz float 1
LOOKUP_TABLE default
0.009839986425673726
0.0
9.918014452078463e-05
0.009847731018820213
0.01923125756797109
0.028156174108291288
0.03662511581195344
0.04464086832166672
0.05220633260853886
0.05932455773784835
0.06599878065283044
0.07223246627141555
0.07802934662242618
0.08339345874820135
0.08832918136445082
0.09284127036458886
0.09693489330658514
0.1006156630592228
0.10388967082205085
0.10676351877379067
0.10924435264962298
0.11133989460088535
0.11305847675240305
0.1144090759440515
0.11540135022666352
0.11604567777848339
0.11635319901867203
0.11633586281913487
0.1160064778546191
0.11537877028068476
0.11446744908360029
0.11328828059331075
0.11185817376935578
0.11019527792462196
0.10831909448671911
0.10625060412339407
0.10401240994341089
0.10162889633141185
0.09912640100617437
0.09653339472872755
0.09388065825194737
0.09120143905313122
0.08853156063396189
0.08590944452592082
0.08337599020785583
0.0809742430539394
0.07874876974297221
0.07674466192433503
0.0750061125953192
0.07357456543914814
0.07248652832715803
0.07177125602346147
0.07144861109297575
0.07152745916654862
0.072004905593091
0.07286653094130174
0.07408757674419217
0.0756348444580956
0.07746896438320602
0.07954668951337497
0.08182294861189174
0.0842525068231606
0.08679118850547911
0.08939669236272023
0.09202906909452273
0.09465094384422962
0.0972275603450378
0.09972671012242354
0.1021185946218455
0.10437565403648802
0.10647238523386
0.10838516268797715
0.11009207034340475
0.1115727483279264
0.11280825586717572
0.11378095020178268
0.11447438043331067
0.11487319479053339
0.11496305964658883
0.11473058861955157
0.11416328018151457
0.11324946233889582
0.11197824310113592
0.11033946561003373
0.10832366694849219
0.10592203978109833
0.103126396098001
0.0999291324380022
0.0963231960575097
0.09230205159027571
0.08785964781016664
0.0829903841671253
0.07768907681659548
0.0719509239068135
0.06577146992904184
0.05914656897777699
0.052072346822797856
0.04454516179784075
0.03656156479196276
0.0281182596948488
0.019212071430569067

