# vtk DataFile Version 2.0
mesh vtk view
ASCII
DATASET UNSTRUCTURED_GRID
POINTS 101 double
0.0016255146852023306 0.0 0.0
2.0 0.0 0.0
0.0199999999999621 -1.638404510176817e-05 0.0
0.03837448531486152 -6.450500441968523e-05 0.0
0.056826307806569026 -0.00014281621561266402 0.0
0.07535545735257193 -0.00024977136441503773 0.0
0.09396190800849195 -0.00038382487534444325 0.0
0.11264561064553913 -0.0005434324457912594 0.0
0.13140648597486515 -0.0007270517157537208 0.0
0.1502444179585798 -0.0009331430654889578 0.0
0.16915924760704817 -0.0011601705333603184 0.0
0.1881507671618714 -0.0014066028461749312 0.0
0.20721871466373898 -0.0016709145543237162 0.0
0.22636276890411738 -0.0019515872640598951 0.0
0.24558254475946142 -0.0022471109592811 0.0
0.264877588906351 -0.002555985405216201 0.0
0.2842473759155914 -0.002876721626458642 0.0
0.30369130472300665 -0.0032078434518378945 0.0
0.3232086954743279 -0.003547889118677734 0.0
0.34279878674112874 -0.0038954129290531252 0.0
0.3624607331044249 -0.0042489869507299554 0.0
0.38219360310212047 -0.004607202755552402 0.0
0.401996377536049 -0.004968673188131896 0.0
0.4218679481339689 -0.0053320341577888205 0.0
0.4418071165613985 -0.0056959464468049874 0.0
0.46181259377774675 -0.006059097528160196 0.0
0.4818829997307345 -0.006420203386050758 0.0
0.5020168633826622 -0.006778010332621507 0.0
0.5222126230616081 -0.007131296814485414 0.0
0.5424686271301987 -0.007478875202756925 0.0
0.5627831349641323 -0.007819593560485713 0.0
0.583154318232193 -0.008152337381547574 0.0
0.6035802624690376 -0.008476031295227717 0.0
0.6240589689316074 -0.008789640730919028 0.0
0.6445883567295829 -0.009092173537553861 0.0
0.6651662652198805 -0.009382681552591908 0.0
0.6857904566547731 -0.009660262115599193 0.0
0.7064586190728269 -0.009924059521673256 0.0
0.7271683694214465 -0.010173266410197305 0.0
0.7479172568994681 -0.010407125084641314 0.0
0.7687027665078675 -0.010624928759369575 0.0
0.7895223227963255 -0.01082602272966311 0.0
0.8103732937930548 -0.011009805461420072 0.0
0.8312529951050067 -0.011175729597257676 0.0
0.8521586941752856 -0.011323302876005616 0.0
0.8730876146843355 -0.011452088962851662 0.0
0.8940369410812286 -0.011561708187676236 0.0
0.9150038232311545 -0.011651838189392298 0.0
0.9359853811650286 -0.011722214464390677 0.0
0.9569787099169549 -0.01177263081747766 0.0
0.9779808844351234 -0.011802939713981156 0.0
0.9989889645516384 -0.011813052531993735 0.0
1.0199999999965939 -0.011802939714013912 0.0
1.0410110354415796 -0.01177263081754274 0.0
1.0620191155582048 -0.011722214464487448 0.0
1.0830212900765146 -0.011651838189519923 0.0
1.1040146188285944 -0.011561708187833662 0.0
1.1249961767626326 -0.011452088963037656 0.0
1.1459630589127303 -0.011323302876218756 0.0
1.166912385309804 -0.011175729597496388 0.0
1.1878413058190425 -0.01100980546168264 0.0
1.2087470048895177 -0.010826022729947647 0.0
1.2296267062016724 -0.010624928759674105 0.0
1.2504776771986088 -0.010407125084963779 0.0
1.2712972334872796 -0.01017326641053552 0.0
1.2920827430958959 -0.00992405952202501 0.0
1.3128316305741363 -0.00966026211596223 0.0
1.3335413809229768 -0.009382681552963934 0.0
1.3542095433412544 -0.009092173537932529 0.0
1.374833734776371 -0.008789640731302036 0.0
1.395411643266891 -0.008476031295612798 0.0
1.4159410310650866 -0.008152337381932514 0.0
1.436419737527875 -0.007819593560868322 0.0
1.4568456817649353 -0.007478875203135128 0.0
1.4772168650332067 -0.007131296814857233 0.0
1.4975313728673445 -0.0067780103329851205 0.0
1.5177873769361343 -0.006420203386404427 0.0
1.5379831366152736 -0.006059097528502312 0.0
1.5581170002673885 -0.005695946447134094 0.0
1.5781874062205559 -0.0053320341581036225 0.0
1.5981928834370773 -0.004968673188431213 0.0
1.6181320518646725 -0.004607202755835252 0.0
1.6380036224627499 -0.004248986950995503 0.0
1.657806396896827 -0.003895412929300726 0.0
1.6775392668946651 -0.0035478891189068555 0.0
1.6972012132580958 -0.0032078434520482245 0.0
1.7167913045250212 -0.002876721626650034 0.0
1.7363086952764586 -0.0025559854053886742 0.0
1.7557526240839851 -0.0022471109594348272 0.0
1.7751224110933277 -0.001951587264195387 0.0
1.7944174552403098 -0.001670914554441607 0.0
1.8136372310957278 -0.001406602846275835 0.0
1.8327812853361636 -0.0011601705334449506 0.0
1.8518492328380778 -0.0009331430655582197 0.0
1.8708407523929398 -0.0007270517158086786 0.0
1.8897555820414373 -0.000543432445833127 0.0
1.9085935140251735 -0.00038382487537459795 0.0
1.927354389354517 -0.00024977136443510187 0.0
1.9460380919915798 -0.00014281621562446862 0.0
1.9646445426475077 -6.450500442524483e-05 0.0
1.9831736921935088 -1.638404510325047e-05 0.0

CELLS 100 300
2 0 2
2 2 3
2 3 4
2 4 5
2 5 6
2 6 7
2 7 8
2 8 9
2 9 10
2 10 11
2 11 12
2 12 13
2 13 14
2 14 15
2 15 16
2 16 17
2 17 18
2 18 19
2 19 20
2 20 21
2 21 22
2 22 23
2 23 24
2 24 25
2 25 26
2 26 27
2 27 28
2 28 29
2 29 30
2 30 31
2 31 32
2 32 33
2 33 34
2 34 35
2 35 36
2 36 37
2 37 38
2 38 39
2 39 40
2 40 41
2 41 42
2 42 43
2 43 44
2 44 45
2 45 46
2 46 47
2 47 48
2 48 49
2 49 50
2 50 51
2 51 52
2 52 53
2 53 54
2 54 55
2 55 56
2 56 57
2 57 58
2 58 59
2 59 60
2 60 61
2 61 62
2 62 63
2 63 64
2 64 65
2 65 66
2 66 67
2 67 68
2 68 69
2 69 70
2 70 71
2 71 72
2 72 73
2 73 74
2 74 75
2 75 76
2 76 77
2 77 78
2 78 79
2 79 80
2 80 81
2 81 82
2 82 83
2 83 84
2 84 85
2 85 86
2 86 87
2 87 88
2 88 89
2 89 90
2 90 91
2 91 92
2 92 93
2 93 94
2 94 95
2 95 96
2 96 97
2 97 98
2 98 99
2 99 100
2 100 1

CELL_TYPES 100
3
3
3
3
3
3
3
3
3
3
3
3
3
3
3
3
3
3
3
3
3
3
3
3
3
3
3
3
3
3
3
3
3
3
3
3
3
3
3
3
3
3
3
3
3
3
3
3
3
3
3
3
3
3
3
3
3
3
3
3
3
3
3
3
3
3
3
3
3
3
3
3
3
3
3
3
3
3
3
3
3
3
3
3
3
3
3
3
3
3
3
3
3
3
3
3
3
3
3
3

POINT_DATA 101
SCALARS MODE1_224.6674_Hz float 1
LOOKUP_TABLE default
0.009839986425673726
0.0
9.918014452078463e-05
0.009847731018820213
0.01923125756797109
0.028156174108291288
0.03662511581195344
0.04464086832166672
0.05220633260853886
0.05932455773784835
0.06599878065283044
0.07223246627141555
0.07802934662242618
0.08339345874820135
0.08832918136445082
0.09284127036458886
0.09693489330658514
0.1006156630592228
0.10388967082205085
0.10676351877379067
0.10924435264962298
0.11133989460088535
0.11305847675240305
0.1144090759440515
0.11540135022666352
0.11604567777848339
0.11635319901867203
0.11633586281913487
0.1160064778546191
0.11537877028068476
0.11446744908360029
0.11328828059331075
0.11185817376935578
0.11019527792462196
0.10831909448671911
0.10625060412339407
0.10401240994341089
0.10162889633141185
0.09912640100617437
0.09653339472872755
0.09388065825194737
0.09120143905313122
0.08853156063396189
0.08590944452592082
0.08337599020785583
0.0809742430539394
0.07874876974297221
0.07674466192433503
0.0750061125953192
0.07357456543914814
0.07248652832715803
0.07177125602346147
0.07144861109297575
0.07152745916654862
0.072004905593091
0.07286653094130174
0.07408757674419217
0.0756348444580956
0.07746896438320602
0.07954668951337497
0.08182294861189174
0.0842525068231606
0.08679118850547911
0.08939669236272023
0.09202906909452273
0.09465094384422962
0.0972275603450378
0.09972671012242354
0.1021185946218455
0.10437565403648802
0.10647238523386
0.10838516268797715
0.11009207034340475
0.1115727483279264
0.11280825586717572
0.11378095020178268
0.11447438043331067
0.11487319479053339
0.11496305964658883
0.11473058861955157
0.11416328018151457
0.11324946233889582
0.11197824310113592
0.11033946561003373
0.10832366694849219
0.10592203978109833
0.103126396098001
0.0999291324380022
0.0963231960575097
0.09230205159027571
0.08785964781016664
0.0829903841671253
0.07768907681659548
0.0719509239068135
0.06577146992904184
0.05914656897777699
0.052072346822797856
0.04454516179784075
0.03656156479196276
0.0281182596948488
0.019212071430569067

