# vtk DataFile Version 2.0
mesh vtk view
ASCII
DATASET UNSTRUCTURED_GRID
POINTS 7 double
-0.0022590881499275272 0.0 0.0
2.0 0.0 0.0
0.3333333333326418 -0.0005893125903664098 0.0
0.6644075785150683 -0.0008655329501407275 0.0
1.0010536761994207 -8.966655211803833e-15 0.0
1.3367792236388534 0.000865532950137184 0.0
1.6677203428678646 0.0005893125903699731 0.0

CELLS 6 18
2 0 2
2 2 3
2 3 4
2 4 5
2 5 6
2 6 1

CELL_TYPES 6
3
3
3
3
3
3

POINT_DATA 7
SCALARS MODE2_620.5202_Hz float 1
LOOKUP_TABLE default
0.1692138172316147
0.0
0.044141629870330705
0.18120828578745038
0.07892413241087073
0.2661271741789052
0.09042954254516906

