# vtk DataFile Version 2.0
mesh vtk view
ASCII
DATASET UNSTRUCTURED_GRID
POINTS 101 double
-0.0014013057631054573 0.0 0.0
2.0 0.0 0.0
0.0199999999999621 1.4124176811869112e-05 0.0
0.041401305762909894 5.560776243076312e-05 0.0
0.06273594154584856 0.00012311742725229656 0.0
0.08400391607507725 0.00021532014173710149 0.0
0.10520525171644259 0.00033088351322796834 0.0
0.12633999082235692 0.0004684762463717753 0.0
0.14740820174528507 0.0006267687204773455 0.0
0.16840998451788752 0.0008044336771456533 0.0
0.1893454762001854 0.001000147011517516 0.0
0.21021485589424632 0.0012125886604956303 0.0
0.23101834942706193 0.0014404435813135483 0.0
0.25175623370253725 0.0016824028138447372 0.0
0.2724288407237094 0.0019371646200699137 0.0
0.2930365612866306 0.002203435694151897 0.0
0.31357984834752145 0.0024799324366022776 0.0
0.3340592200651582 0.0027653822860671503 0.0
0.35447526252080713 0.0030585251023083912 0.0
0.3748286321182837 0.0033581145940113147 0.0
0.3951200576670579 0.0036629197851120302 0.0
0.4153503421516942 0.003971726513407244 0.0
0.4355203641913023 0.004283338955286117 0.0
0.4556310791929869 0.0045965811705076035 0.0
0.4756835202037145 0.004910298661038782 0.0
0.49567879846537477 0.005223359938069135 0.0
0.5156181036782076 0.0055346580914230675 0.0
0.5355027039781611 0.005843112355708195 0.0
0.5553339456341335 0.006147669667659839 0.0
0.5751132524714468 0.0064473062092732115 0.0
0.5948421250282919 0.006741028931453201 0.0
0.6145221394522686 0.007027877053058253 0.0
0.6341549461445353 0.007306923530368722 0.0
0.6537422681594526 0.007577276492171576 0.0
0.6732858993679859 0.007838080635822293 0.0
0.6927877023934828 0.00808851857982061 0.0
0.7122496063288112 0.008327812168619993 0.0
0.7316736042441734 0.008555223725580392 0.0
0.7510617504952547 0.00877005725017009 0.0
0.7704161578416793 0.008971659555725271 0.0
0.7897389943860539 0.009159421344284116 0.0
0.8090324803441707 0.009332778215226819 0.0
0.8282988846572265 0.009491211604672476 0.0
0.8475405214571592 0.00963424965280834 0.0
0.8667597463964656 0.009761467996556564 0.0
0.8859589528540724 0.00987249048521695 0.0
0.905140568029056 0.009966989816962273 0.0
0.9243070489341833 0.010044688094303705 0.0
0.9434608783014244 0.010105357296888514 0.0
0.9626045604117243 0.01014881967023936 0.0
0.9817406168614703 0.0101749480292941 0.0
1.0008715822781995 0.010183665975856668 0.0
1.0199999999981229 0.010174948029322338 0.0
1.0391284177180615 0.010148819670295465 0.0
1.0582593831348623 0.010105357296971939 0.0
1.077395439584692 0.010044688094413728 0.0
1.0965391216950668 0.009966989817097986 0.0
1.1156929510623743 0.009872490485377288 0.0
1.134859431967561 0.009761467996740308 0.0
1.1540410471425961 0.009634249653014128 0.0
1.1732402536002462 0.009491211604898827 0.0
1.1924594785395903 0.009332778215472109 0.0
1.2117011153395556 0.009159421344546642 0.0
1.2309675196526382 0.008971659556003257 0.0
1.2502610056107795 0.008770057250461654 0.0
1.2695838421551746 0.008555223725883628 0.0
1.2889382495016175 0.008327812168932958 0.0
1.3083263957527138 0.008088518580141322 0.0
1.3277503936680908 0.007838080636148732 0.0
1.3472122976034333 0.007577276492501755 0.0
1.3667141006289458 0.007306923530700688 0.0
1.386257731837495 0.007027877053390097 0.0
1.4058450538524312 0.006741028931783036 0.0
1.4254778605447191 0.0064473062095992476 0.0
1.445157874968722 0.006147669667980373 0.0
1.4648867475255964 0.005843112356021655 0.0
1.4846660543629455 0.005534658091727954 0.0
1.5044972960189582 0.005223359938364062 0.0
1.524381896318958 0.004910298661322495 0.0
1.5443212015318415 0.0045965811707789845 0.0
1.56431647979356 0.004283338955544149 0.0
1.5843689208043523 0.003971726513651079 0.0
1.6044796358061086 0.0036629197853409504 0.0
1.6246496578457938 0.0033581145942247633 0.0
1.6448799423305152 0.00305852510250591 0.0
1.6651713678793802 0.002765382286248469 0.0
1.6855247374769573 0.0024799324367672706 0.0
1.7059407799327113 0.002203435694300581 0.0
1.7264201516504598 0.001937164620202437 0.0
1.7469634387114699 0.0016824028139615405 0.0
1.7675711592745151 0.0014404435814151782 0.0
1.7882437662958033 0.0012125886605826163 0.0
1.8089816505713885 0.0010001470115904745 0.0
1.8297851441043196 0.0008044336772053618 0.0
1.8506545237985028 0.000626768720524723 0.0
1.8715900154809293 0.0004684762464078681 0.0
1.892591798253669 0.00033088351325396377 0.0
1.9136600091767475 0.00021532014175439814 0.0
1.9347947482828267 0.00012311742726247294 0.0
1.955996083924365 5.560776243555589e-05 0.0
1.9772640584537728 1.4124176813146958e-05 0.0

CELLS 100 300
2 0 2
2 2 3
2 3 4
2 4 5
2 5 6
2 6 7
2 7 8
2 8 9
2 9 10
2 10 11
2 11 12
2 12 13
2 13 14
2 14 15
2 15 16
2 16 17
2 17 18
2 18 19
2 19 20
2 20 21
2 21 22
2 22 23
2 23 24
2 24 25
2 25 26
2 26 27
2 27 28
2 28 29
2 29 30
2 30 31
2 31 32
2 32 33
2 33 34
2 34 35
2 35 36
2 36 37
2 37 38
2 38 39
2 39 40
2 40 41
2 41 42
2 42 43
2 43 44
2 44 45
2 45 46
2 46 47
2 47 48
2 48 49
2 49 50
2 50 51
2 51 52
2 52 53
2 53 54
2 54 55
2 55 56
2 56 57
2 57 58
2 58 59
2 59 60
2 60 61
2 61 62
2 62 63
2 63 64
2 64 65
2 65 66
2 66 67
2 67 68
2 68 69
2 69 70
2 70 71
2 71 72
2 72 73
2 73 74
2 74 75
2 75 76
2 76 77
2 77 78
2 78 79
2 79 80
2 80 81
2 81 82
2 82 83
2 83 84
2 84 85
2 85 86
2 86 87
2 87 88
2 88 89
2 89 90
2 90 91
2 91 92
2 92 93
2 93 94
2 94 95
2 95 96
2 96 97
2 97 98
2 98 99
2 99 100
2 100 1

CELL_TYPES 100
3
3
3
3
3
3
3
3
3
3
3
3
3
3
3
3
3
3
3
3
3
3
3
3
3
3
3
3
3
3
3
3
3
3
3
3
3
3
3
3
3
3
3
3
3
3
3
3
3
3
3
3
3
3
3
3
3
3
3
3
3
3
3
3
3
3
3
3
3
3
3
3
3
3
3
3
3
3
3
3
3
3
3
3
3
3
3
3
3
3
3
3
3
3
3
3
3
3
3
3

POINT_DATA 101
SCALARS MODE1_224.6674_Hz float 1
LOOKUP_TABLE default
0.009839986425673726
0.0
9.918014452078463e-05
0.009847731018820213
0.01923125756797109
0.028156174108291288
0.03662511581195344
0.04464086832166672
0.05220633260853886
0.05932455773784835
0.06599878065283044
0.07223246627141555
0.07802934662242618
0.08339345874820135
0.08832918136445082
0.09284127036458886
0.09693489330658514
0.1006156630592228
0.10388967082205085
0.10676351877379067
0.10924435264962298
0.11133989460088535
0.11305847675240305
0.1144090759440515
0.11540135022666352
0.11604567777848339
0.11635319901867203
0.11633586281913487
0.1160064778546191
0.11537877028068476
0.11446744908360029
0.11328828059331075
0.11185817376935578
0.11019527792462196
0.10831909448671911
0.10625060412339407
0.10401240994341089
0.10162889633141185
0.09912640100617437
0.09653339472872755
0.09388065825194737
0.09120143905313122
0.08853156063396189
0.08590944452592082
0.08337599020785583
0.0809742430539394
0.07874876974297221
0.07674466192433503
0.0750061125953192
0.07357456543914814
0.07248652832715803
0.07177125602346147
0.07144861109297575
0.07152745916654862
0.072004905593091
0.07286653094130174
0.07408757674419217
0.0756348444580956
0.07746896438320602
0.07954668951337497
0.08182294861189174
0.0842525068231606
0.08679118850547911
0.08939669236272023
0.09202906909452273
0.09465094384422962
0.0972275603450378
0.09972671012242354
0.1021185946218455
0.10437565403648802
0.10647238523386
0.10838516268797715
0.11009207034340475
0.1115727483279264
0.11280825586717572
0.11378095020178268
0.11447438043331067
0.11487319479053339
0.11496305964658883
0.11473058861955157
0.11416328018151457
0.11324946233889582
0.11197824310113592
0.11033946561003373
0.10832366694849219
0.10592203978109833
0.103126396098001
0.0999291324380022
0.0963231960575097
0.09230205159027571
0.08785964781016664
0.0829903841671253
0.07768907681659548
0.0719509239068135
0.06577146992904184
0.05914656897777699
0.052072346822797856
0.04454516179784075
0.03656156479196276
0.0281182596948488
0.019212071430569067

