# vtk DataFile Version 2.0
mesh vtk view
ASCII
DATASET UNSTRUCTURED_GRID
POINTS 101 double
0.003902660334077291 0.0 0.0
2.0 0.0 0.0
0.0199999999999621 3.955870849625887e-05 0.0
0.04390266033396626 0.00015397817657324857 0.0
0.06748609007842028 0.00033687527143480594 0.0
0.09075047326447493 0.0005818731509962607 0.0
0.11369627663702658 0.0008826081800192431 0.0
0.1363243738196393 0.0012327392083558621 0.0
0.1586361573647994 0.001625958969318447 0.0
0.18063363872338054 0.002056007357058936 0.0
0.2023195361869366 0.002516686343143304 0.0
0.22369735087988396 0.0030018762943100283 0.0
0.24477143090542122 0.0035055534557713974 0.0
0.2655470237787835 0.0040218083674062 0.0
0.2860303173135253 0.004544864983844735 0.0
0.3062284691607354 0.005069100273799677 0.0
0.3261496252366567 0.005589064079071707 0.0
0.34580292731107865 0.0060994990194817 0.0
0.3651985100664339 0.006595360236558281 0.0
0.38434748797527585 0.007071834776138614 0.0
0.4032619323815008 0.0075243604181222615 0.0
0.4219548392079194 0.007948643770434954 0.0
0.4404400877491459 0.008340677453791563 0.0
0.45873239104380703 0.008696756214066164 0.0
0.47684723835368104 0.009013491809949288 0.0
0.49480083030901395 0.009287826535056094 0.0
0.5126100073087411 0.009517045245698026 0.0
0.5302921717913576 0.009698785778093374 0.0
0.5478652050164763 0.009831047651811146 0.0
0.5653473790184522 0.009912198969657782 0.0
0.5827572644116373 0.009940981437961346 0.0
0.6001136347416617 0.009916513445215134 0.0
0.6174353680884795 0.009838291151240788 0.0
0.6347413466346118 0.00970618755334516 0.0
0.6520503549159866 0.009520449510301468 0.0
0.6693809774729175 0.009281692719305082 0.0
0.6867514966150542 0.00899089465526164 0.0
0.704179791006521 0.008649385495780827 0.0
0.7216832357659809 0.008258837068997134 0.0
0.7392786047610095 0.007821249874741093 0.0
0.7569819757570286 0.007338938242567487 0.0
0.7748086390581987 0.006814513702636061 0.0
0.7927730102512175 0.006250866657365819 0.0
0.8108885476330406 0.005651146453077165 0.0
0.8291676748703051 0.0050187399614331045 0.0
0.8476217094018543 0.004357248790330249 0.0
0.8662607970564522 0.0036704652529160856 0.0
0.8850938533157329 0.0029623472315686876 0.0
0.9041285116079159 0.0022369920809214997 0.0
0.9233710789710589 0.0014986097203072972 0.0
0.9428264993759127 0.0007514950712952138 0.0
0.9624983249480545 2.709572098430197e-13 0.0
0.9823886952771216 -0.0007514950707569578 0.0
1.002498324948026 -0.0014986097197765458 0.0
1.0228264993757916 -0.0022369920804003246 0.0
1.0433710789708268 -0.002962347231059032 0.0
1.0641285116075796 -0.0036704652524198124 0.0
1.0850938533152987 -0.004357248789849028 0.0
1.1062607970559262 -0.005018739960968436 0.0
1.1276217094012444 -0.005651146452630381 0.0
1.1491676748696187 -0.006250866656938024 0.0
1.170888547632287 -0.0068145137022282455 0.0
1.1927730102504048 -0.007338938242180408 0.0
1.214808639057335 -0.007821249874375304 0.0
1.2369819757561236 -0.008258837068653036 0.0
1.259278604760072 -0.008649385495458621 0.0
1.281683235765019 -0.008990894654961333 0.0
1.3041797910055428 -0.009281692719026506 0.0
1.3267514966140692 -0.009520449510044295 0.0
1.349380977471933 -0.00970618755310891 0.0
1.3720503549150087 -0.009838291151024855 0.0
1.3947413466336462 -0.00991651344501879 0.0
1.4174353680875327 -0.009940981437783764 0.0
1.4401136347407382 -0.00991219896949806 0.0
1.46275726441074 -0.00983104765166833 0.0
1.4853473790175826 -0.00969878577796649 0.0
1.5078652050156371 -0.009517045245586055 0.0
1.5302921717905515 -0.009287826534957985 0.0
1.5526100073079692 -0.009013491809863983 0.0
1.5748008303082766 -0.008696756213992613 0.0
1.596847238352979 -0.008340677453728735 0.0
1.61873239104314 -0.007948643770381847 0.0
1.640440087748513 -0.0075243604180779055 0.0
1.6619548392073193 -0.007071834776102103 0.0
1.6832619323809341 -0.0065953602365286705 0.0
1.7043474879747424 -0.006099499019458169 0.0
1.7251985100659297 -0.005589064079053456 0.0
1.7458029273106037 -0.005069100273785961 0.0
1.7661496252362137 -0.004544864983834848 0.0
1.7862284691603196 -0.004021808367399837 0.0
1.8060303173131362 -0.00350555345576827 0.0
1.8255470237784344 -0.0030018762943095807 0.0
1.8447714309051284 -0.0025166863431448747 0.0
1.8636973508796488 -0.002056007357061928 0.0
1.8823195361867588 -0.001625958969322298 0.0
1.9006336387232574 -0.0012327392083600016 0.0
1.91863615736473 -0.0008826081800231237 0.0
1.9363243738196154 -0.0005818731509995465 0.0
1.953696276637039 -0.0003368752714372943 0.0
1.9707504732645187 -0.00015397817657481898 0.0
1.9874860900784967 -3.955870849679825e-05 0.0

CELLS 100 300
2 0 2
2 2 3
2 3 4
2 4 5
2 5 6
2 6 7
2 7 8
2 8 9
2 9 10
2 10 11
2 11 12
2 12 13
2 13 14
2 14 15
2 15 16
2 16 17
2 17 18
2 18 19
2 19 20
2 20 21
2 21 22
2 22 23
2 23 24
2 24 25
2 25 26
2 26 27
2 27 28
2 28 29
2 29 30
2 30 31
2 31 32
2 32 33
2 33 34
2 34 35
2 35 36
2 36 37
2 37 38
2 38 39
2 39 40
2 40 41
2 41 42
2 42 43
2 43 44
2 44 45
2 45 46
2 46 47
2 47 48
2 48 49
2 49 50
2 50 51
2 51 52
2 52 53
2 53 54
2 54 55
2 55 56
2 56 57
2 57 58
2 58 59
2 59 60
2 60 61
2 61 62
2 62 63
2 63 64
2 64 65
2 65 66
2 66 67
2 67 68
2 68 69
2 69 70
2 70 71
2 71 72
2 72 73
2 73 74
2 74 75
2 75 76
2 76 77
2 77 78
2 78 79
2 79 80
2 80 81
2 81 82
2 82 83
2 83 84
2 84 85
2 85 86
2 86 87
2 87 88
2 88 89
2 89 90
2 90 91
2 91 92
2 92 93
2 93 94
2 94 95
2 95 96
2 96 97
2 97 98
2 98 99
2 99 100
2 100 1

CELL_TYPES 100
3
3
3
3
3
3
3
3
3
3
3
3
3
3
3
3
3
3
3
3
3
3
3
3
3
3
3
3
3
3
3
3
3
3
3
3
3
3
3
3
3
3
3
3
3
3
3
3
3
3
3
3
3
3
3
3
3
3
3
3
3
3
3
3
3
3
3
3
3
3
3
3
3
3
3
3
3
3
3
3
3
3
3
3
3
3
3
3
3
3
3
3
3
3
3
3
3
3
3
3

POINT_DATA 101
SCALARS MODE2_619.3044_Hz float 1
LOOKUP_TABLE default
0.02667832639425423
0.0
0.00027042069938373756
0.026699083007919962
0.051226201980524154
0.07359708701882048
0.09382103666866715
0.11191006164382647
0.12787948854935227
0.14174868299595036
0.15354173192877954
0.16328807272750234
0.17102307352289706
0.17678857506283804
0.1806334097950444
0.1826139209232872
0.18279451462093835
0.18124829451165347
0.1780578524601111
0.17331632962095828
0.1671289269340401
0.1596151531053225
0.15091228306524565
0.14118081837980806
0.13061329096678734
0.11944868054755584
0.10799616053171027
0.09667354918822504
0.08606517552256139
0.07699038186628254
0.07052139906996478
0.0677930767341908
0.069501413157734
0.07546310527553234
0.0847864704938791
0.09641173806822753
0.10945160536274122
0.12325377272168135
0.13735162014845098
0.15140445605845224
0.16515386844506685
0.17839589591397076
0.19096401355270906
0.2027188105813003
0.21354169713990498
0.22333103645466829
0.23199975169910012
0.23947384093246493
0.24569145754367722
0.2506023455246499
0.25416749795121163
0.2563589555978672
0.25715969339290257
0.2565635628299336
0.2545752729356508
0.25121040379507276
0.24649545700115738
0.24046795850898092
0.23317664320751727
0.224681769745335
0.21505564287344375
0.2043834655890343
0.19276471631338998
0.18031536755705324
0.16717146778713352
0.15349495947738576
0.13948320450631146
0.1253846671393985
0.11152460413669278
0.09834571135528687
0.08646546035877668
0.07673032312149616
0.07018092003459671
0.06776358520223974
0.0697975269831806
0.07570959356788932
0.08439972464774075
0.09476895026186898
0.10595814165819112
0.11735092830459416
0.1285076113813822
0.13910468075092816
0.14889365925404818
0.15767548617693478
0.16528493749394357
0.17158112105142395
0.17644159358226474
0.17975864487127408
0.18143689083568149
0.18139166359648984
0.17954788762881996
0.17583924915808627
0.17020753655747473
0.16260207255394285
0.15297918586723497
0.1413016869830855
0.12753832390979083
0.11166320132919325
0.09365515225078395
0.07349705764895377
0.05117512820322159

