# vtk DataFile Version 2.0
mesh vtk view
ASCII
DATASET UNSTRUCTURED_GRID
POINTS 101 double
0.0014013057631054576 0.0 0.0
2.0 0.0 0.0
0.0199999999999621 -1.4124176811869113e-05 0.0
0.03859869423693917 -5.5607762430763134e-05 0.0
0.057264058453923065 -0.0001231174272522966 0.0
0.07599608392460937 -0.00021532014173710154 0.0
0.09479474828315497 -0.0003308835132279684 0.0
0.11366000917715526 -0.0004684762463717754 0.0
0.1325917982541555 -0.0006267687204773456 0.0
0.15159001548149148 -0.0008044336771456534 0.0
0.1706545237991324 -0.0010001470115175162 0.0
0.1897851441050103 -0.0012125886604956305 0.0
0.20898165057213325 -0.0014404435813135487 0.0
0.22824376629659293 -0.0016824028138447374 0.0
0.24757115927533163 -0.0019371646200699142 0.0
0.26696343871229766 -0.0022034356941518975 0.0
0.2864201516512899 -0.002479932436602278 0.0
0.3059407799335364 -0.0027653822860671507 0.0
0.32552473747777083 -0.0030585251023083917 0.0
0.34517136788017727 -0.0033581145940113155 0.0
0.36487994233128657 -0.003662919785112031 0.0
0.3846496578465334 -0.003971726513407244 0.0
0.4044796358068085 -0.004283338955286118 0.0
0.42436892080500727 -0.004596581170507604 0.0
0.44431647979416267 -0.004910298661038783 0.0
0.4643212015323859 -0.005223359938069136 0.0
0.4843818963194362 -0.005534658091423068 0.0
0.5044972960193658 -0.0058431123557081965 0.0
0.5246660543632766 -0.00614766966765984 0.0
0.5448867475258468 -0.006447306209273212 0.0
0.5651578749688849 -0.006741028931453202 0.0
0.5854778605447912 -0.007027877053058255 0.0
0.6058450538524078 -0.007306923530368724 0.0
0.6262577318373738 -0.007577276492171578 0.0
0.6467141006287239 -0.007838080635822295 0.0
0.6672122976031103 -0.008088518579820611 0.0
0.6877503936676649 -0.008327812168619995 0.0
0.7083263957521859 -0.008555223725580393 0.0
0.7289382495009878 -0.008770057250170092 0.0
0.7495838421544467 -0.008971659555725273 0.0
0.7702610056099554 -0.009159421344284118 0.0
0.7909675196517215 -0.00933277821522682 0.0
0.811701115338549 -0.009491211604672478 0.0
0.8324594785384996 -0.009634249652808343 0.0
0.8532402535990766 -0.009761467996556566 0.0
0.874041047141353 -0.009872490485216951 0.0
0.8948594319662527 -0.009966989816962275 0.0
0.9156929510610085 -0.010044688094303707 0.0
0.9365391216936505 -0.010105357296888516 0.0
0.9573954395832341 -0.010148819670239362 0.0
0.9782593831333714 -0.010174948029294101 0.0
0.9991284177165689 -0.01018366597585667 0.0
1.019999999996707 -0.01017494802932234 0.0
1.0408715822768746 -0.010148819670295467 0.0
1.0617406168601795 -0.01010535729697194 0.0
1.0826045604104537 -0.01004468809441373 0.0
1.1034608783001851 -0.009966989817097987 0.0
1.1243070489329838 -0.00987249048537729 0.0
1.145140568027903 -0.00976146799674031 0.0
1.165958952852974 -0.00963424965301413 0.0
1.1867597463954278 -0.009491211604898828 0.0
1.2075405214561898 -0.00933277821547211 0.0
1.2282988846563303 -0.009159421344546644 0.0
1.2490324803433517 -0.008971659556003259 0.0
1.2697389943853166 -0.008770057250461656 0.0
1.2904161578410276 -0.00855522372588363 0.0
1.3110617504946904 -0.00832781216893296 0.0
1.331673604243698 -0.008088518580141323 0.0
1.3522496063284273 -0.007838080636148732 0.0
1.3727877023931905 -0.007577276492501756 0.0
1.3932858993677841 -0.00730692353070069 0.0
1.413742268159339 -0.007027877053390099 0.0
1.434154946144509 -0.0067410289317830375 0.0
1.4545221394523267 -0.006447306209599249 0.0
1.47484212502843 -0.006147669667980375 0.0
1.4951132524716595 -0.005843112356021657 0.0
1.5153339456344166 -0.005534658091727955 0.0
1.5355027039785096 -0.005223359938364063 0.0
1.555618103678616 -0.0049102986613224955 0.0
1.5756787984658365 -0.004596581170778985 0.0
1.595683520204224 -0.00428333895554415 0.0
1.6156310791935375 -0.00397172651365108 0.0
1.6355203641918874 -0.0036629197853409513 0.0
1.6553503421523061 -0.003358114594224764 0.0
1.675120057667691 -0.0030585251025059103 0.0
1.6948286321189316 -0.00276538228624847 0.0
1.7144752625214608 -0.002479932436767271 0.0
1.7340592200658107 -0.0022034356943005816 0.0
1.7535798483481684 -0.0019371646202024375 0.0
1.773036561287264 -0.0016824028139615407 0.0
1.792428840724325 -0.0014404435814151786 0.0
1.8117562337031408 -0.0012125886605826167 0.0
1.8310183494276617 -0.0010001470115904747 0.0
1.8502148558948364 -0.0008044336772053619 0.0
1.8693454762007593 -0.0006267687205247231 0.0
1.8884099845184368 -0.0004684762464078682 0.0
1.9074082017458027 -0.0003308835132539638 0.0
1.9263399908228305 -0.0002153201417543982 0.0
1.9452052517168574 -0.00012311742726247297 0.0
1.964003916075423 -5.5607762435555904e-05 0.0
1.982735941546121 -1.412417681314696e-05 0.0

CELLS 100 300
2 0 2
2 2 3
2 3 4
2 4 5
2 5 6
2 6 7
2 7 8
2 8 9
2 9 10
2 10 11
2 11 12
2 12 13
2 13 14
2 14 15
2 15 16
2 16 17
2 17 18
2 18 19
2 19 20
2 20 21
2 21 22
2 22 23
2 23 24
2 24 25
2 25 26
2 26 27
2 27 28
2 28 29
2 29 30
2 30 31
2 31 32
2 32 33
2 33 34
2 34 35
2 35 36
2 36 37
2 37 38
2 38 39
2 39 40
2 40 41
2 41 42
2 42 43
2 43 44
2 44 45
2 45 46
2 46 47
2 47 48
2 48 49
2 49 50
2 50 51
2 51 52
2 52 53
2 53 54
2 54 55
2 55 56
2 56 57
2 57 58
2 58 59
2 59 60
2 60 61
2 61 62
2 62 63
2 63 64
2 64 65
2 65 66
2 66 67
2 67 68
2 68 69
2 69 70
2 70 71
2 71 72
2 72 73
2 73 74
2 74 75
2 75 76
2 76 77
2 77 78
2 78 79
2 79 80
2 80 81
2 81 82
2 82 83
2 83 84
2 84 85
2 85 86
2 86 87
2 87 88
2 88 89
2 89 90
2 90 91
2 91 92
2 92 93
2 93 94
2 94 95
2 95 96
2 96 97
2 97 98
2 98 99
2 99 100
2 100 1

CELL_TYPES 100
3
3
3
3
3
3
3
3
3
3
3
3
3
3
3
3
3
3
3
3
3
3
3
3
3
3
3
3
3
3
3
3
3
3
3
3
3
3
3
3
3
3
3
3
3
3
3
3
3
3
3
3
3
3
3
3
3
3
3
3
3
3
3
3
3
3
3
3
3
3
3
3
3
3
3
3
3
3
3
3
3
3
3
3
3
3
3
3
3
3
3
3
3
3
3
3
3
3
3
3

POINT_DATA 101
SCALARS MODE1_224.6674_Hz float 1
LOOKUP_TABLE default
0.009839986425673726
0.0
9.918014452078463e-05
0.009847731018820213
0.01923125756797109
0.028156174108291288
0.03662511581195344
0.04464086832166672
0.05220633260853886
0.05932455773784835
0.06599878065283044
0.07223246627141555
0.07802934662242618
0.08339345874820135
0.08832918136445082
0.09284127036458886
0.09693489330658514
0.1006156630592228
0.10388967082205085
0.10676351877379067
0.10924435264962298
0.11133989460088535
0.11305847675240305
0.1144090759440515
0.11540135022666352
0.11604567777848339
0.11635319901867203
0.11633586281913487
0.1160064778546191
0.11537877028068476
0.11446744908360029
0.11328828059331075
0.11185817376935578
0.11019527792462196
0.10831909448671911
0.10625060412339407
0.10401240994341089
0.10162889633141185
0.09912640100617437
0.09653339472872755
0.09388065825194737
0.09120143905313122
0.08853156063396189
0.08590944452592082
0.08337599020785583
0.0809742430539394
0.07874876974297221
0.07674466192433503
0.0750061125953192
0.07357456543914814
0.07248652832715803
0.07177125602346147
0.07144861109297575
0.07152745916654862
0.072004905593091
0.07286653094130174
0.07408757674419217
0.0756348444580956
0.07746896438320602
0.07954668951337497
0.08182294861189174
0.0842525068231606
0.08679118850547911
0.08939669236272023
0.09202906909452273
0.09465094384422962
0.0972275603450378
0.09972671012242354
0.1021185946218455
0.10437565403648802
0.10647238523386
0.10838516268797715
0.11009207034340475
0.1115727483279264
0.11280825586717572
0.11378095020178268
0.11447438043331067
0.11487319479053339
0.11496305964658883
0.11473058861955157
0.11416328018151457
0.11324946233889582
0.11197824310113592
0.11033946561003373
0.10832366694849219
0.10592203978109833
0.103126396098001
0.0999291324380022
0.0963231960575097
0.09230205159027571
0.08785964781016664
0.0829903841671253
0.07768907681659548
0.0719509239068135
0.06577146992904184
0.05914656897777699
0.052072346822797856
0.04454516179784075
0.03656156479196276
0.0281182596948488
0.019212071430569067

