# vtk DataFile Version 2.0
mesh vtk view
ASCII
DATASET UNSTRUCTURED_GRID
POINTS 101 double
-5.605223052421814e-05 0.0 0.0
2.0 0.0 0.0
0.0199999999999621 5.649670724747629e-07 0.0
0.04005605223044395 2.2243104972305186e-06 0.0
0.06010943766172433 4.92469709009185e-06 0.0
0.08016015664285267 8.612805669484035e-06 0.0
0.10020821006846453 1.3235340529118697e-05 0.0
0.12025359963266012 1.8739049854870962e-05 0.0
0.14029632806954287 2.507074881909375e-05 0.0
0.1603363993804174 3.217734708582604e-05 0.0
0.18037381904767996 4.000588046070053e-05 0.0
0.20040859423541302 4.8503546419825084e-05 0.0
0.22044073397669617 5.7617743252541775e-05 0.0
0.24047024934768396 6.72961125537893e-05 0.0
0.2604971536284881 7.748658480279634e-05 0.0
0.2805214624509508 8.813742776607565e-05 0.0
0.3005431939333303 9.919729746409083e-05 0.0
0.32056236880197975 0.00011061529144268571 0.0
0.3405790105001497 0.00012234100409233532 0.0
0.3605931452839926 0.00013432458376045223 0.0
0.38060480230588767 0.0001465167914044808 0.0
0.400614013685217 0.0001588690605362893 0.0
0.42062081456674527 0.0001713335582114442 0.0
0.44062524316675666 0.00018386324682030363 0.0
0.46062734080712964 0.00019641194644155074 0.0
0.4806271519375401 0.00020893439752276482 0.0
0.5006247241459973 0.00022138632365692208 0.0
0.5206201081579394 0.00023372449422832717 0.0
0.5406133578241222 0.0002459067867063929 0.0
0.5606045300975588 0.00025789224837092774 0.0
0.5805936849997766 0.0002696411572581273 0.0
0.6005808855766794 0.00028111508212232936 0.0
0.6205661978443141 0.00029227694121474807 0.0
0.6405496907248548 0.0003030910596868622 0.0
0.6605314359731401 0.00031352322543289085 0.0
0.680511508094104 0.0003235407431928235 0.0
0.7004899842514609 0.0003331124867447988 0.0
0.7204669441680194 0.00034220894902321476 0.0
0.7404424700180066 0.0003508022900068027 0.0
0.7604166463118076 0.00035886638222900984 0.0
0.7803895597735266 0.00036637685377136363 0.0
0.8003612992117951 0.0003733111286090718 0.0
0.8203319553842613 0.00037964846418689797 0.0
0.8403016208562025 0.00038536998611233257 0.0
0.8602703898537188 0.0003904587198622615 0.0
0.8802383581119672 0.0003948996194086769 0.0
0.9002056227189104 0.0003986795926784898 0.0
0.9201722819550594 0.0004017875237721471 0.0
0.940138435129693 0.00040421429187553943 0.0
0.960104182414049 0.00040595278680957334 0.0
0.9800696246719828 0.00040699792117176287 0.0
1.000034863288617 0.0004073466390342656 0.0
1.0199999999974434 0.0004069979211728924 0.0
1.0399651367062919 0.0004059527868118175 0.0
1.0599303753230145 0.00040421429187887645 0.0
1.0798958175810576 0.000401787523776548 0.0
1.0998615648655237 0.0003986795926839183 0.0
1.119827718040267 0.00039489961941509044 0.0
1.139794377276525 0.00039045871986961124 0.0
1.1597616418835774 0.00038536998612056405 0.0
1.1797296101419334 0.00037964846419595203 0.0
1.1996983791395581 0.0003733111286188833 0.0
1.2196680446116075 0.0003663768537818647 0.0
1.2396387007841807 0.0003588663822401293 0.0
1.2596104402225572 0.00035080229001846524 0.0
1.2795833536843841 0.0003422089490353442 0.0
1.2995575299782924 0.0003331124867573174 0.0
1.3195330558283862 0.00032354074320565195 0.0
1.3395100157450524 0.0003135232254459484 0.0
1.3594884919025167 0.0003030910597000694 0.0
1.3794685640235882 0.00029227694122802673 0.0
1.39945030927198 0.00028111508213560314 0.0
1.4194338021526285 0.0002696411572713207 0.0
1.4394191144203707 0.00025789224838396917 0.0
1.459406314997382 0.00024590678671921424 0.0
1.4793954698997067 0.00023372449424086556 0.0
1.4993866421732516 0.00022138632366911756 0.0
1.519379891839543 0.0002089343975345619 0.0
1.539375275851594 0.00019641194645289925 0.0
1.5593728480601592 0.00018386324683115888 0.0
1.5793726591906787 0.00017133355822176552 0.0
1.5993747568311611 0.00015886906054604272 0.0
1.6193791854312825 0.00014651679141363763 0.0
1.6393859863129197 0.00013432458376899016 0.0
1.6593951976923595 0.00012234100410023606 0.0
1.679406854714365 0.00011061529144993847 0.0
1.699420989498319 9.919729747069056e-05 0.0
1.719437631196599 8.8137427772023e-05 0.0
1.73945680606536 7.748658480809728e-05 0.0
1.759478537547851 6.729611255846143e-05 0.0
1.7795028463704239 5.761774325660697e-05 0.0
1.7995297506513253 4.8503546423304526e-05 0.0
1.8195592660223996 4.000588046361888e-05 0.0
1.8395914057637677 3.2177347088214385e-05 0.0
1.859626180951586 2.507074882098885e-05 0.0
1.879663600618933 1.8739049856314672e-05 0.0
1.8997036719298932 1.3235340530158514e-05 0.0
1.9197464003668674 8.612805670175902e-06 0.0
1.9397917899311614 4.924697090498905e-06 0.0
1.959839843356873 2.2243104974222297e-06 0.0
1.9798905623381 5.649670725258767e-07 0.0

CELLS 100 300
2 0 2
2 2 3
2 3 4
2 4 5
2 5 6
2 6 7
2 7 8
2 8 9
2 9 10
2 10 11
2 11 12
2 12 13
2 13 14
2 14 15
2 15 16
2 16 17
2 17 18
2 18 19
2 19 20
2 20 21
2 21 22
2 22 23
2 23 24
2 24 25
2 25 26
2 26 27
2 27 28
2 28 29
2 29 30
2 30 31
2 31 32
2 32 33
2 33 34
2 34 35
2 35 36
2 36 37
2 37 38
2 38 39
2 39 40
2 40 41
2 41 42
2 42 43
2 43 44
2 44 45
2 45 46
2 46 47
2 47 48
2 48 49
2 49 50
2 50 51
2 51 52
2 52 53
2 53 54
2 54 55
2 55 56
2 56 57
2 57 58
2 58 59
2 59 60
2 60 61
2 61 62
2 62 63
2 63 64
2 64 65
2 65 66
2 66 67
2 67 68
2 68 69
2 69 70
2 70 71
2 71 72
2 72 73
2 73 74
2 74 75
2 75 76
2 76 77
2 77 78
2 78 79
2 79 80
2 80 81
2 81 82
2 82 83
2 83 84
2 84 85
2 85 86
2 86 87
2 87 88
2 88 89
2 89 90
2 90 91
2 91 92
2 92 93
2 93 94
2 94 95
2 95 96
2 96 97
2 97 98
2 98 99
2 99 100
2 100 1

CELL_TYPES 100
3
3
3
3
3
3
3
3
3
3
3
3
3
3
3
3
3
3
3
3
3
3
3
3
3
3
3
3
3
3
3
3
3
3
3
3
3
3
3
3
3
3
3
3
3
3
3
3
3
3
3
3
3
3
3
3
3
3
3
3
3
3
3
3
3
3
3
3
3
3
3
3
3
3
3
3
3
3
3
3
3
3
3
3
3
3
3
3
3
3
3
3
3
3
3
3
3
3
3
3

POINT_DATA 101
SCALARS MODE1_224.6674_Hz float 1
LOOKUP_TABLE default
0.009839986425673726
0.0
9.918014452078463e-05
0.009847731018820213
0.01923125756797109
0.028156174108291288
0.03662511581195344
0.04464086832166672
0.05220633260853886
0.05932455773784835
0.06599878065283044
0.07223246627141555
0.07802934662242618
0.08339345874820135
0.08832918136445082
0.09284127036458886
0.09693489330658514
0.1006156630592228
0.10388967082205085
0.10676351877379067
0.10924435264962298
0.11133989460088535
0.11305847675240305
0.1144090759440515
0.11540135022666352
0.11604567777848339
0.11635319901867203
0.11633586281913487
0.1160064778546191
0.11537877028068476
0.11446744908360029
0.11328828059331075
0.11185817376935578
0.11019527792462196
0.10831909448671911
0.10625060412339407
0.10401240994341089
0.10162889633141185
0.09912640100617437
0.09653339472872755
0.09388065825194737
0.09120143905313122
0.08853156063396189
0.08590944452592082
0.08337599020785583
0.0809742430539394
0.07874876974297221
0.07674466192433503
0.0750061125953192
0.07357456543914814
0.07248652832715803
0.07177125602346147
0.07144861109297575
0.07152745916654862
0.072004905593091
0.07286653094130174
0.07408757674419217
0.0756348444580956
0.07746896438320602
0.07954668951337497
0.08182294861189174
0.0842525068231606
0.08679118850547911
0.08939669236272023
0.09202906909452273
0.09465094384422962
0.0972275603450378
0.09972671012242354
0.1021185946218455
0.10437565403648802
0.10647238523386
0.10838516268797715
0.11009207034340475
0.1115727483279264
0.11280825586717572
0.11378095020178268
0.11447438043331067
0.11487319479053339
0.11496305964658883
0.11473058861955157
0.11416328018151457
0.11324946233889582
0.11197824310113592
0.11033946561003373
0.10832366694849219
0.10592203978109833
0.103126396098001
0.0999291324380022
0.0963231960575097
0.09230205159027571
0.08785964781016664
0.0829903841671253
0.07768907681659548
0.0719509239068135
0.06577146992904184
0.05914656897777699
0.052072346822797856
0.04454516179784075
0.03656156479196276
0.0281182596948488
0.019212071430569067

