# vtk DataFile Version 2.0
mesh vtk view
ASCII
DATASET UNSTRUCTURED_GRID
POINTS 101 double
-0.0008407834578632742 0.0 0.0
2.0 0.0 0.0
0.0199999999999621 8.474506087121465e-06 0.0
0.040840783457715746 3.336465745845787e-05 0.0
0.06164156492746347 7.387045635137793e-05 0.0
0.08240234964498368 0.00012919208504226086 0.0
0.10312315102978506 0.00019853010793678097 0.0
0.1238039944933166 0.0002810857478230651 0.0
0.14444492104705917 0.00037606123228640725 0.0
0.1650459907106083 0.00048266020628739184 0.0
0.1856072857199748 0.0006000882069105095 0.0
0.20612891353639912 0.0007275531962973781 0.0
0.2266110096560762 0.0008642661487881289 0.0
0.24705374022134838 0.001009441688306842 0.0
0.2674573044340338 0.0011622987720419481 0.0
0.287821936771764 0.001322061416491138 0.0
0.30814790900827516 0.0014879594619613664 0.0
0.32843553203883386 0.0016592293716402899 0.0
0.34868515751219986 0.0018351150613850344 0.0
0.36889717927066246 0.0020148687564067887 0.0
0.3890720345999036 0.002197751871067218 0.0
0.40921020529066204 0.002383035908044346 0.0
0.42931221851440354 0.0025700033731716697 0.0
0.44937864751539097 0.0027579487023045614 0.0
0.46941011212180417 0.0029461791966232686 0.0
0.489407279078777 0.00313401596284148 0.0
0.5093708622064533 0.00332079485485384 0.0
0.529301622386402 0.0035058674134249164 0.0
0.5492003673799621 0.0036886018005959026 0.0
0.5690679514823268 0.0038683837255639258 0.0
0.5889052750164105 0.0040446173588719195 0.0
0.6087132836707732 0.004216726231834951 0.0
0.6284929676861097 0.004384154118221233 0.0
0.6482453608950368 0.004546365895302945 0.0
0.6679715396201334 0.004702848381493375 0.0
0.6876726214354082 0.004853111147892365 0.0
0.707349763796582 0.004996687301171995 0.0
0.7270041625457759 0.005133134235348234 0.0
0.7466370502964013 0.005262034350102054 0.0
0.7662496947042328 0.005382995733435161 0.0
0.7858433966308341 0.005495652806570468 0.0
0.8054194882056809 0.005599666929136091 0.0
0.824979330793491 0.005694726962803484 0.0
0.8445243128734272 0.005780549791685003 0.0
0.8640558478369877 0.005856880797933938 0.0
0.8835753717115286 0.005923494291130168 0.0
0.9030843408164952 0.005980193890177362 0.0
0.9225842293595483 0.006026812856582222 0.0
0.9420765269798697 0.006063214378133107 0.0
0.9615627362460263 0.006089291802143616 0.0
0.9810443701158506 0.0061049688175764585 0.0
1.0005229493658734 0.0061101995855139994 0.0
1.0199999999978397 0.0061049688175934015 0.0
1.039477050629824 0.006089291802177278 0.0
1.0589556298799259 0.006063214378183162 0.0
1.0784372637498445 0.006026812856648235 0.0
1.0979234730160905 0.005980193890258789 0.0
1.1174157706364962 0.005923494291226372 0.0
1.1369156591796294 0.005856880798044183 0.0
1.1564246282846717 0.005780549791808475 0.0
1.1759441521592824 0.005694726962939295 0.0
1.1954756871229102 0.005599666929283265 0.0
1.2150206692029106 0.005495652806727985 0.0
1.2345805117907809 0.005382995733601953 0.0
1.2541566033656868 0.005262034350276992 0.0
1.2737503052923451 0.005133134235530176 0.0
1.2933629497002321 0.004996687301359774 0.0
1.3129958374509108 0.004853111148084792 0.0
1.332650236200158 0.004702848381689237 0.0
1.3523273785613847 0.004546365895501052 0.0
1.3720284603767134 0.004384154118420412 0.0
1.3917546391018636 0.004216726232034057 0.0
1.4115070323108467 0.00404461735906982 0.0
1.4312867163262406 0.003868383725759548 0.0
1.4510947249806636 0.003688601800788223 0.0
1.470932048514809 0.0035058674136129926 0.0
1.4907996326172397 0.0033207948550367716 0.0
1.5106983776108684 0.0031340159630184367 0.0
1.5306291377908896 0.002946179196793496 0.0
1.5505927209186405 0.0027579487024673903 0.0
1.5705898878756928 0.002570003373326489 0.0
1.5906213524821893 0.002383035908190647 0.0
1.6106877814832643 0.00219775187120457 0.0
1.6307897947070964 0.0020148687565348577 0.0
1.6509279653979503 0.0018351150615035455 0.0
1.6711028207272904 0.0016592293717490813 0.0
1.691314842485858 0.001487959462060362 0.0
1.7115644679593311 0.0013220614165803486 0.0
1.7318520909900015 0.001162298772121462 0.0
1.7521780632266286 0.001009441688376924 0.0
1.7725426955644772 0.0008642661488491068 0.0
1.7929462597772707 0.0007275531963495697 0.0
1.8133889903426432 0.0006000882069542847 0.0
1.833871086462423 0.00048266020632321696 0.0
1.854392714278954 0.00037606123231483373 0.0
1.874954009288431 0.0002810857478447208 0.0
1.8955550789520959 0.00019853010795237822 0.0
1.9161960055059641 0.00012919208505263885 0.0
1.9368768489696329 7.387045635748375e-05 0.0
1.9575976503545767 3.336465746133353e-05 0.0
1.9783584350722425 8.474506087888172e-06 0.0

CELLS 100 300
2 0 2
2 2 3
2 3 4
2 4 5
2 5 6
2 6 7
2 7 8
2 8 9
2 9 10
2 10 11
2 11 12
2 12 13
2 13 14
2 14 15
2 15 16
2 16 17
2 17 18
2 18 19
2 19 20
2 20 21
2 21 22
2 22 23
2 23 24
2 24 25
2 25 26
2 26 27
2 27 28
2 28 29
2 29 30
2 30 31
2 31 32
2 32 33
2 33 34
2 34 35
2 35 36
2 36 37
2 37 38
2 38 39
2 39 40
2 40 41
2 41 42
2 42 43
2 43 44
2 44 45
2 45 46
2 46 47
2 47 48
2 48 49
2 49 50
2 50 51
2 51 52
2 52 53
2 53 54
2 54 55
2 55 56
2 56 57
2 57 58
2 58 59
2 59 60
2 60 61
2 61 62
2 62 63
2 63 64
2 64 65
2 65 66
2 66 67
2 67 68
2 68 69
2 69 70
2 70 71
2 71 72
2 72 73
2 73 74
2 74 75
2 75 76
2 76 77
2 77 78
2 78 79
2 79 80
2 80 81
2 81 82
2 82 83
2 83 84
2 84 85
2 85 86
2 86 87
2 87 88
2 88 89
2 89 90
2 90 91
2 91 92
2 92 93
2 93 94
2 94 95
2 95 96
2 96 97
2 97 98
2 98 99
2 99 100
2 100 1

CELL_TYPES 100
3
3
3
3
3
3
3
3
3
3
3
3
3
3
3
3
3
3
3
3
3
3
3
3
3
3
3
3
3
3
3
3
3
3
3
3
3
3
3
3
3
3
3
3
3
3
3
3
3
3
3
3
3
3
3
3
3
3
3
3
3
3
3
3
3
3
3
3
3
3
3
3
3
3
3
3
3
3
3
3
3
3
3
3
3
3
3
3
3
3
3
3
3
3
3
3
3
3
3
3

POINT_DATA 101
SCALARS MODE1_224.6674_Hz float 1
LOOKUP_TABLE default
0.009839986425673726
0.0
9.918014452078463e-05
0.009847731018820213
0.01923125756797109
0.028156174108291288
0.03662511581195344
0.04464086832166672
0.05220633260853886
0.05932455773784835
0.06599878065283044
0.07223246627141555
0.07802934662242618
0.08339345874820135
0.08832918136445082
0.09284127036458886
0.09693489330658514
0.1006156630592228
0.10388967082205085
0.10676351877379067
0.10924435264962298
0.11133989460088535
0.11305847675240305
0.1144090759440515
0.11540135022666352
0.11604567777848339
0.11635319901867203
0.11633586281913487
0.1160064778546191
0.11537877028068476
0.11446744908360029
0.11328828059331075
0.11185817376935578
0.11019527792462196
0.10831909448671911
0.10625060412339407
0.10401240994341089
0.10162889633141185
0.09912640100617437
0.09653339472872755
0.09388065825194737
0.09120143905313122
0.08853156063396189
0.08590944452592082
0.08337599020785583
0.0809742430539394
0.07874876974297221
0.07674466192433503
0.0750061125953192
0.07357456543914814
0.07248652832715803
0.07177125602346147
0.07144861109297575
0.07152745916654862
0.072004905593091
0.07286653094130174
0.07408757674419217
0.0756348444580956
0.07746896438320602
0.07954668951337497
0.08182294861189174
0.0842525068231606
0.08679118850547911
0.08939669236272023
0.09202906909452273
0.09465094384422962
0.0972275603450378
0.09972671012242354
0.1021185946218455
0.10437565403648802
0.10647238523386
0.10838516268797715
0.11009207034340475
0.1115727483279264
0.11280825586717572
0.11378095020178268
0.11447438043331067
0.11487319479053339
0.11496305964658883
0.11473058861955157
0.11416328018151457
0.11324946233889582
0.11197824310113592
0.11033946561003373
0.10832366694849219
0.10592203978109833
0.103126396098001
0.0999291324380022
0.0963231960575097
0.09230205159027571
0.08785964781016664
0.0829903841671253
0.07768907681659548
0.0719509239068135
0.06577146992904184
0.05914656897777699
0.052072346822797856
0.04454516179784075
0.03656156479196276
0.0281182596948488
0.019212071430569067

