# vtk DataFile Version 2.0
mesh vtk view
ASCII
DATASET UNSTRUCTURED_GRID
POINTS 101 double
-0.0016255146852023306 0.0 0.0
2.0 0.0 0.0
0.0199999999999621 1.638404510176817e-05 0.0
0.04162551468498755 6.450500441968523e-05 0.0
0.06317369219320261 0.00014281621561266402 0.0
0.08464454264711468 0.00024977136441503773 0.0
0.1060380919911056 0.00038382487534444325 0.0
0.12735438935397306 0.0005434324457912594 0.0
0.14859351402457543 0.0007270517157537208 0.0
0.1697555820407992 0.0009331430654889578 0.0
0.19084075239226964 0.0011601705333603184 0.0
0.21184923283738522 0.0014066028461749312 0.0
0.23278128533545622 0.0016709145543237162 0.0
0.2536372310950128 0.0019515872640598951 0.0
0.2744174552395796 0.0022471109592811 0.0
0.29512241109257725 0.002555985405216201 0.0
0.31575262408321997 0.002876721626458642 0.0
0.33630869527568796 0.0032078434518378945 0.0
0.35679130452425006 0.003547889118677734 0.0
0.37720121325733225 0.0038954129290531252 0.0
0.39753926689391955 0.0042489869507299554 0.0
0.4178063968961071 0.004607202755552402 0.0
0.4380036224620618 0.004968673188131896 0.0
0.4581320518640253 0.0053320341577888205 0.0
0.4781928834364787 0.0056959464468049874 0.0
0.4981874062200139 0.006059097528160196 0.0
0.5181170002669093 0.006420203386050758 0.0
0.5379831366148647 0.006778010332621507 0.0
0.557787376935802 0.007131296814485414 0.0
0.5775313728670949 0.007478875202756925 0.0
0.5972168650330445 0.007819593560485713 0.0
0.6168456817648669 0.008152337381547574 0.0
0.6364197375279055 0.008476031295227717 0.0
0.655941031065219 0.008789640730919028 0.0
0.6754116432671269 0.009092173537553861 0.0
0.6948337347767125 0.009382681552591908 0.0
0.714209543341703 0.009660262115599193 0.0
0.7335413809235324 0.009924059521673256 0.0
0.7528316305747961 0.010173266410197305 0.0
0.7720827430966579 0.010407125084641314 0.0
0.7912972334881417 0.010624928759369575 0.0
0.8104776771995668 0.01082602272966311 0.0
0.8296267062027207 0.011009805461420072 0.0
0.848747004890652 0.011175729597257676 0.0
0.8678413058202566 0.011323302876005616 0.0
0.88691238531109 0.011452088962851662 0.0
0.9059630589140801 0.011561708187676236 0.0
0.9249961767640372 0.011651838189392298 0.0
0.9440146188300463 0.011722214464390677 0.0
0.9630212900780035 0.01177263081747766 0.0
0.9820191155597182 0.011802939713981156 0.0
1.0010110354431299 0.011813052531993735 0.0
1.019999999998236 0.011802939714013912 0.0
1.0389889645533565 0.01177263081754274 0.0
1.057980884436837 0.011722214464487448 0.0
1.0769787099186312 0.011651838189519923 0.0
1.0959853811666576 0.011561708187833662 0.0
1.1150038232327255 0.011452088963037656 0.0
1.1340369410827336 0.011323302876218756 0.0
1.153087614685766 0.011175729597496388 0.0
1.1721586941766315 0.01100980546168264 0.0
1.1912529951062625 0.010826022729947647 0.0
1.2103732937942135 0.010624928759674105 0.0
1.229522322797381 0.010407125084963779 0.0
1.2487027665088164 0.01017326641053552 0.0
1.2679172569003063 0.00992405952202501 0.0
1.2871683694221716 0.00966026211596223 0.0
1.306458619073435 0.009382681552963934 0.0
1.3257904566552636 0.009092173537932529 0.0
1.3451662652202527 0.008789640731302036 0.0
1.364588356729839 0.008476031295612798 0.0
1.3840589689317473 0.008152337381932514 0.0
1.403580262469065 0.007819593560868322 0.0
1.4231543182321105 0.007478875203135128 0.0
1.4427831349639453 0.007131296814857233 0.0
1.4624686271299114 0.0067780103329851205 0.0
1.4822126230612278 0.006420203386404427 0.0
1.5020168633821942 0.006059097528502312 0.0
1.5218829997301855 0.005695946447134094 0.0
1.541812593777122 0.0053320341581036225 0.0
1.5618071165607068 0.004968673188431213 0.0
1.5818679481332174 0.004607202755835252 0.0
1.6019963775352462 0.004248986950995503 0.0
1.622193603101273 0.003895412929300726 0.0
1.642460733103541 0.0035478891189068555 0.0
1.662798786740216 0.0032078434520482245 0.0
1.683208695473397 0.002876721626650034 0.0
1.7036913047220634 0.0025559854053886742 0.0
1.724247375914643 0.0022471109594348272 0.0
1.7448775889054062 0.001951587264195387 0.0
1.7655825447585303 0.001670914554441607 0.0
1.7863627689032162 0.001406602846275835 0.0
1.8072187146628866 0.0011601705334449506 0.0
1.8281507671610782 0.0009331430655582197 0.0
1.8491592476063223 0.0007270517158086786 0.0
1.8702444179579287 0.000543432445833127 0.0
1.8914064859742983 0.00038382487537459795 0.0
1.912645610645061 0.00024977136443510187 0.0
1.9339619080081043 0.00014281621562446862 0.0
1.9553554573522804 6.450500442524483e-05 0.0
1.976826307806385 1.638404510325047e-05 0.0

CELLS 100 300
2 0 2
2 2 3
2 3 4
2 4 5
2 5 6
2 6 7
2 7 8
2 8 9
2 9 10
2 10 11
2 11 12
2 12 13
2 13 14
2 14 15
2 15 16
2 16 17
2 17 18
2 18 19
2 19 20
2 20 21
2 21 22
2 22 23
2 23 24
2 24 25
2 25 26
2 26 27
2 27 28
2 28 29
2 29 30
2 30 31
2 31 32
2 32 33
2 33 34
2 34 35
2 35 36
2 36 37
2 37 38
2 38 39
2 39 40
2 40 41
2 41 42
2 42 43
2 43 44
2 44 45
2 45 46
2 46 47
2 47 48
2 48 49
2 49 50
2 50 51
2 51 52
2 52 53
2 53 54
2 54 55
2 55 56
2 56 57
2 57 58
2 58 59
2 59 60
2 60 61
2 61 62
2 62 63
2 63 64
2 64 65
2 65 66
2 66 67
2 67 68
2 68 69
2 69 70
2 70 71
2 71 72
2 72 73
2 73 74
2 74 75
2 75 76
2 76 77
2 77 78
2 78 79
2 79 80
2 80 81
2 81 82
2 82 83
2 83 84
2 84 85
2 85 86
2 86 87
2 87 88
2 88 89
2 89 90
2 90 91
2 91 92
2 92 93
2 93 94
2 94 95
2 95 96
2 96 97
2 97 98
2 98 99
2 99 100
2 100 1

CELL_TYPES 100
3
3
3
3
3
3
3
3
3
3
3
3
3
3
3
3
3
3
3
3
3
3
3
3
3
3
3
3
3
3
3
3
3
3
3
3
3
3
3
3
3
3
3
3
3
3
3
3
3
3
3
3
3
3
3
3
3
3
3
3
3
3
3
3
3
3
3
3
3
3
3
3
3
3
3
3
3
3
3
3
3
3
3
3
3
3
3
3
3
3
3
3
3
3
3
3
3
3
3
3

POINT_DATA 101
SCALARS MODE1_224.6674_Hz float 1
LOOKUP_TABLE default
0.009839986425673726
0.0
9.918014452078463e-05
0.009847731018820213
0.01923125756797109
0.028156174108291288
0.03662511581195344
0.04464086832166672
0.05220633260853886
0.05932455773784835
0.06599878065283044
0.07223246627141555
0.07802934662242618
0.08339345874820135
0.08832918136445082
0.09284127036458886
0.09693489330658514
0.1006156630592228
0.10388967082205085
0.10676351877379067
0.10924435264962298
0.11133989460088535
0.11305847675240305
0.1144090759440515
0.11540135022666352
0.11604567777848339
0.11635319901867203
0.11633586281913487
0.1160064778546191
0.11537877028068476
0.11446744908360029
0.11328828059331075
0.11185817376935578
0.11019527792462196
0.10831909448671911
0.10625060412339407
0.10401240994341089
0.10162889633141185
0.09912640100617437
0.09653339472872755
0.09388065825194737
0.09120143905313122
0.08853156063396189
0.08590944452592082
0.08337599020785583
0.0809742430539394
0.07874876974297221
0.07674466192433503
0.0750061125953192
0.07357456543914814
0.07248652832715803
0.07177125602346147
0.07144861109297575
0.07152745916654862
0.072004905593091
0.07286653094130174
0.07408757674419217
0.0756348444580956
0.07746896438320602
0.07954668951337497
0.08182294861189174
0.0842525068231606
0.08679118850547911
0.08939669236272023
0.09202906909452273
0.09465094384422962
0.0972275603450378
0.09972671012242354
0.1021185946218455
0.10437565403648802
0.10647238523386
0.10838516268797715
0.11009207034340475
0.1115727483279264
0.11280825586717572
0.11378095020178268
0.11447438043331067
0.11487319479053339
0.11496305964658883
0.11473058861955157
0.11416328018151457
0.11324946233889582
0.11197824310113592
0.11033946561003373
0.10832366694849219
0.10592203978109833
0.103126396098001
0.0999291324380022
0.0963231960575097
0.09230205159027571
0.08785964781016664
0.0829903841671253
0.07768907681659548
0.0719509239068135
0.06577146992904184
0.05914656897777699
0.052072346822797856
0.04454516179784075
0.03656156479196276
0.0281182596948488
0.019212071430569067

