# vtk DataFile Version 2.0
mesh vtk view
ASCII
DATASET UNSTRUCTURED_GRID
POINTS 101 double
0.010288831789840129 0.0 0.0
2.0 0.0 0.0
0.0199999999999621 0.00010429114058104608 0.0
0.0502888317896709 0.0004059424655112916 0.0
0.07973605566147669 0.0008881257156008518 0.0
0.10834215678841758 0.0015340292162628688 0.0
0.13610836567976298 0.0023268761109598224 0.0
0.16303698552490273 0.0032499488220290905 0.0
0.1891316875985652 0.00428661910093045 0.0
0.21439777481669312 0.005420383032246285 0.0
0.23884241358430008 0.006634900359195982 0.0
0.26247483413848405 0.007914037503180982 0.0
0.28530649966040533 0.009241913656124591 0.0
0.30735124450841356 0.010602949332252707 0.0
0.3286253820091694 0.011981916775590662 0.0
0.34914778233372473 0.01336399163092642 0.0
0.36893992107943113 0.01473480529937086 0.0
0.3880258992757299 0.016080497414997206 0.0
0.4064324356308528 0.01738776789638092 0.0
0.4241888319360773 0.018643928046183617 0.0
0.4413269126434931 0.019836950193231413 0.0
0.4578809397314194 0.020955515394783054 0.0
0.4738875040674758 0.021989058741814112 0.0
0.4893853945716778 0.022927811837083516 0.0
0.5044154465705323 0.023762842044411755 0.0
0.5190203708165053 0.024486088137875152 0.0
0.5332445647249724 0.0250903920113857 0.0
0.5471339074519661 0.02556952614224616 0.0
0.5607355405001019 0.025918216536593017 0.0
0.5740976355963155 0.02613216092000687 0.0
0.5872691516329901 0.026208041972807176 0.0
0.6002995825031501 0.026143535446476258 0.0
0.6132386976903108 0.025937313035089345 0.0
0.6261362774938459 0.025589039913364506 0.0
0.6390418447812021 0.025099366890794773 0.0
0.6520043951586608 0.024469917169077027 0.0
0.6650721274425716 0.023703267727507953 0.0
0.6782921762928976 0.02280292539796763 0.0
0.6917103488406603 0.021773297727356075 0.0
0.7053708671003766 0.020619658760681055 0.0
0.719316117908159 0.019348109912223372 0.0
0.7335864120658848 0.01796553612513143 0.0
0.7482197543021207 0.016479557551237155 0.0
0.7632516255815681 0.014898477012657979 0.0
0.7787147792071789 0.013231223534687272 0.0
0.794639052063177 0.011487292265416109 0.0
0.8110511922435759 0.009676681121324224 0.0
0.827974704199957 0.007809824519590174 0.0
0.8454297124248986 0.0058975245769748615 0.0
0.8634328445641892 0.003950880171719237 0.0
0.8819971347225356 0.0019812142788691997 0.0
0.9011319475946059 7.143417350406881e-13 0.0
0.9208429239166417 -0.001981214277450161 0.0
0.9411319475943937 -0.003950880170319983 0.0
0.9619971347220526 -0.005897524575600855 0.0
0.9834328445634243 -0.007809824518246537 0.0
1.0054297124238676 -0.009676681120015867 0.0
1.0279747041986762 -0.011487292264147436 0.0
1.051051192242062 -0.013231223533462238 0.0
1.0746390520614506 -0.014898477011480091 0.0
1.0987147792052612 -0.016479557550109332 0.0
1.1232516255794818 -0.01796553612405628 0.0
1.1482197542998882 -0.01934810991120289 0.0
1.173586412063528 -0.020619658759716705 0.0
1.1993161179057017 -0.021773297726448912 0.0
1.2253708670978425 -0.022802925397118177 0.0
1.251710348838071 -0.023703267726716236 0.0
1.2782921762902757 -0.0244699171683426 0.0
1.3050721274399402 -0.025099366890116773 0.0
1.33200439515604 -0.025589039912741664 0.0
1.3590418447786077 -0.025937313034520067 0.0
1.3861362774912942 -0.02614353544595862 0.0
1.4132386976878168 -0.02620804197233901 0.0
1.4402995825007268 -0.02613216091958579 0.0
1.4672691516306449 -0.0259182165362165 0.0
1.4940976355940538 -0.025569526141911648 0.0
1.5207355404979293 -0.025090392011090503 0.0
1.5471339074498893 -0.024486088137616498 0.0
1.5732445647229947 -0.02376284204418686 0.0
1.5990203708146289 -0.02292781183688961 0.0
1.624415446568758 -0.021989058741648474 0.0
1.6493853945700048 -0.020955515394643045 0.0
1.6738875040659014 -0.01983695019311447 0.0
1.6978809397299417 -0.018643928046087357 0.0
1.7213269126421122 -0.017387767896302857 0.0
1.744188831934793 -0.01608049741493517 0.0
1.7664324356296546 -0.014734805299322744 0.0
1.7880258992746192 -0.013363991630890257 0.0
1.8089399210784127 -0.011981916775564596 0.0
1.8291477823327877 -0.010602949332235932 0.0
1.8486253820083083 -0.009241913656116346 0.0
1.8673512445076452 -0.007914037503179802 0.0
1.8853064996597522 -0.006634900359200123 0.0
1.9024748341379465 -0.005420383032254173 0.0
1.918842413583877 -0.004286619100940603 0.0
1.9343977748163792 -0.0032499488220400037 0.0
1.9491316875983564 -0.002326876110970053 0.0
1.963036985524786 -0.0015340292162715314 0.0
1.976108365679725 -0.000888125715607412 0.0
1.98834215678845 -0.0004059424655154318 0.0
1.9997360556615784 -0.00010429114058246808 0.0

CELLS 100 300
2 0 2
2 2 3
2 3 4
2 4 5
2 5 6
2 6 7
2 7 8
2 8 9
2 9 10
2 10 11
2 11 12
2 12 13
2 13 14
2 14 15
2 15 16
2 16 17
2 17 18
2 18 19
2 19 20
2 20 21
2 21 22
2 22 23
2 23 24
2 24 25
2 25 26
2 26 27
2 27 28
2 28 29
2 29 30
2 30 31
2 31 32
2 32 33
2 33 34
2 34 35
2 35 36
2 36 37
2 37 38
2 38 39
2 39 40
2 40 41
2 41 42
2 42 43
2 43 44
2 44 45
2 45 46
2 46 47
2 47 48
2 48 49
2 49 50
2 50 51
2 51 52
2 52 53
2 53 54
2 54 55
2 55 56
2 56 57
2 57 58
2 58 59
2 59 60
2 60 61
2 61 62
2 62 63
2 63 64
2 64 65
2 65 66
2 66 67
2 67 68
2 68 69
2 69 70
2 70 71
2 71 72
2 72 73
2 73 74
2 74 75
2 75 76
2 76 77
2 77 78
2 78 79
2 79 80
2 80 81
2 81 82
2 82 83
2 83 84
2 84 85
2 85 86
2 86 87
2 87 88
2 88 89
2 89 90
2 90 91
2 91 92
2 92 93
2 93 94
2 94 95
2 95 96
2 96 97
2 97 98
2 98 99
2 99 100
2 100 1

CELL_TYPES 100
3
3
3
3
3
3
3
3
3
3
3
3
3
3
3
3
3
3
3
3
3
3
3
3
3
3
3
3
3
3
3
3
3
3
3
3
3
3
3
3
3
3
3
3
3
3
3
3
3
3
3
3
3
3
3
3
3
3
3
3
3
3
3
3
3
3
3
3
3
3
3
3
3
3
3
3
3
3
3
3
3
3
3
3
3
3
3
3
3
3
3
3
3
3
3
3
3
3
3
3

POINT_DATA 101
SCALARS MODE2_619.3044_Hz float 1
LOOKUP_TABLE default
0.02667832639425423
0.0
0.00027042069938373756
0.026699083007919962
0.051226201980524154
0.07359708701882048
0.09382103666866715
0.11191006164382647
0.12787948854935227
0.14174868299595036
0.15354173192877954
0.16328807272750234
0.17102307352289706
0.17678857506283804
0.1806334097950444
0.1826139209232872
0.18279451462093835
0.18124829451165347
0.1780578524601111
0.17331632962095828
0.1671289269340401
0.1596151531053225
0.15091228306524565
0.14118081837980806
0.13061329096678734
0.11944868054755584
0.10799616053171027
0.09667354918822504
0.08606517552256139
0.07699038186628254
0.07052139906996478
0.0677930767341908
0.069501413157734
0.07546310527553234
0.0847864704938791
0.09641173806822753
0.10945160536274122
0.12325377272168135
0.13735162014845098
0.15140445605845224
0.16515386844506685
0.17839589591397076
0.19096401355270906
0.2027188105813003
0.21354169713990498
0.22333103645466829
0.23199975169910012
0.23947384093246493
0.24569145754367722
0.2506023455246499
0.25416749795121163
0.2563589555978672
0.25715969339290257
0.2565635628299336
0.2545752729356508
0.25121040379507276
0.24649545700115738
0.24046795850898092
0.23317664320751727
0.224681769745335
0.21505564287344375
0.2043834655890343
0.19276471631338998
0.18031536755705324
0.16717146778713352
0.15349495947738576
0.13948320450631146
0.1253846671393985
0.11152460413669278
0.09834571135528687
0.08646546035877668
0.07673032312149616
0.07018092003459671
0.06776358520223974
0.0697975269831806
0.07570959356788932
0.08439972464774075
0.09476895026186898
0.10595814165819112
0.11735092830459416
0.1285076113813822
0.13910468075092816
0.14889365925404818
0.15767548617693478
0.16528493749394357
0.17158112105142395
0.17644159358226474
0.17975864487127408
0.18143689083568149
0.18139166359648984
0.17954788762881996
0.17583924915808627
0.17020753655747473
0.16260207255394285
0.15297918586723497
0.1413016869830855
0.12753832390979083
0.11166320132919325
0.09365515225078395
0.07349705764895377
0.05117512820322159

