# vtk DataFile Version 2.0
mesh vtk view
ASCII
DATASET UNSTRUCTURED_GRID
POINTS 101 double
-0.000392365613669528 0.0 0.0
2.0 0.0 0.0
0.0199999999999621 3.95476950732335e-06 0.0
0.04039236561356043 1.5570173480613672e-05 0.0
0.060766063632755385 3.447287963064303e-05 0.0
0.08112109650090882 6.0289639686388405e-05 0.0
0.10145747048045904 9.264738370383111e-05 0.0
0.12177519743008433 0.00013117334898409705 0.0
0.14207429648847844 0.0001754952417336567 0.0
0.16235479566478495 0.00022524142960078287 0.0
0.18261673333580633 0.0002800411632249044 0.0
0.20286015965012136 0.0003395248249387764 0.0
0.2230851378392876 0.00040332420276779343 0.0
0.24329174543639728 0.0004710727878765263 0.0
0.2634800754022934 0.0005424060936195758 0.0
0.28365023715987076 0.0006169619943625311 0.0
0.3038023575368781 0.0006943810822486376 0.0
0.32393658161777433 0.0007743070400988019 0.0
0.34405307350531406 0.0008563870286463493 0.0
0.3641520169925654 0.0009402720863231679 0.0
0.3842336161461802 0.0010256175398313681 0.0
0.4042980958018363 0.001112083423754028 0.0
0.4243457019728845 0.0011993349074801126 0.0
0.4443767021733142 0.0012870427277421287 0.0
0.46439138565627586 0.0013748836250908586 0.0
0.48439006356949876 0.0014625407826593575 0.0
0.5043730690290499 0.0015497042655984584 0.0
0.5243407571129948 0.0016360714595982943 0.0
0.5442935047766251 0.0017213475069447544 0.0
0.5642317106910308 0.0018052457385964987 0.0
0.5841557950069054 0.0018874881008068957 0.0
0.6040661990455768 0.0019678055748563105 0.0
0.6239633849193694 0.0020459385885032415 0.0
0.6438478350835042 0.0021216374178080408 0.0
0.6637200518218516 0.0021946625780302417 0.0
0.6835805566689487 0.0022647852023497702 0.0
0.7034298897707986 0.0023317874072135976 0.0
0.7232686091870579 0.0023954626431625095 0.0
0.7430972901373186 0.002455616030047625 0.0
0.7629165241942756 0.0025120646756030753 0.0
0.7827269184266584 0.0025646379763995517 0.0
0.8025290944948891 0.0026131779002635087 0.0
0.8223236877025026 0.0026575392493082928 0.0
0.8421113460064418 0.0026975899027863346 0.0
0.8618927289894055 0.002733211039035837 0.0
0.8816685067974934 0.0027642973358607452 0.0
0.9014393590464468 0.0027907571487494356 0.0
0.9212059736998404 0.0028125126664050367 0.0
0.9409690459226259 0.002829500043128783 0.0
0.9607292769134679 0.0028416695076670206 0.0
0.9804873727193547 0.0028489854482023473 0.0
1.0002440430360124 0.0028514264732398664 0.0
1.0199999999976133 0.0028489854482102537 0.0
1.0397559569592343 0.0028416695076827294 0.0
1.0595126272759765 0.002829500043152142 0.0
1.0792707230819663 0.002812512666435843 0.0
1.0990309540729095 0.002790757148787435 0.0
1.1187940262957938 0.0027642973359056403 0.0
1.138560640949284 0.002733211039087285 0.0
1.1583314931983322 0.002697589902843955 0.0
1.1781072710065115 0.002657539249371671 0.0
1.1978886539895661 0.00261317790033219 0.0
1.2176763122935945 0.0025646379764730593 0.0
1.2374709055012951 0.0025120646756809114 0.0
1.2572730815696127 0.002455616030129263 0.0
1.2770834758020817 0.0023954626432474155 0.0
1.2969027098591237 0.0023317874073012276 0.0
1.3167313908094682 0.0022647852024395695 0.0
1.3365701102258118 0.0021946625781216443 0.0
1.3564194433277459 0.002121637417900491 0.0
1.3762799481749277 0.0020459385885961924 0.0
1.3961521649133588 0.0019678055749492267 0.0
1.4160366150775792 0.0018874881008992496 0.0
1.435933800951458 0.001805245738687789 0.0
1.455844204990217 0.001721347507034504 0.0
1.4757682893061792 0.001636071459686063 0.0
1.4957064952206751 0.0015497042656838268 0.0
1.5156592428843967 0.001462540782741937 0.0
1.535626930968435 0.001374883625170298 0.0
1.5556099364280798 0.0012870427278181154 0.0
1.575608614341399 0.0011993349075523616 0.0
1.5956232978244589 0.001112083423822302 0.0
1.615654298024989 0.001025617539895466 0.0
1.6357019041961383 0.0009402720863829336 0.0
1.6557663838518983 0.0008563870287016546 0.0
1.6758479830056188 0.0007743070401495713 0.0
1.6959469264929785 0.0006943810822948357 0.0
1.7160634183806271 0.0006169619944041626 0.0
1.736197642461635 0.0005424060936566823 0.0
1.7563497628387557 0.00047107278790923125 0.0
1.7765199245964467 0.00040332420279624983 0.0
1.7967082545624447 0.00033952482496313254 0.0
1.816914862159647 0.0002800411632453328 0.0
1.8371398403489057 0.00022524142961750124 0.0
1.8573832666633152 0.0001754952417469224 0.0
1.877645204334432 0.00013117334899420303 0.0
1.8979257035108372 9.264738371110982e-05 0.0
1.9182248025693374 6.028963969123147e-05 0.0
1.9385425295190777 3.447287963349242e-05 0.0
1.958878903498746 1.5570173481955647e-05 0.0
1.9792339363670182 3.954769507681147e-06 0.0

CELLS 100 300
2 0 2
2 2 3
2 3 4
2 4 5
2 5 6
2 6 7
2 7 8
2 8 9
2 9 10
2 10 11
2 11 12
2 12 13
2 13 14
2 14 15
2 15 16
2 16 17
2 17 18
2 18 19
2 19 20
2 20 21
2 21 22
2 22 23
2 23 24
2 24 25
2 25 26
2 26 27
2 27 28
2 28 29
2 29 30
2 30 31
2 31 32
2 32 33
2 33 34
2 34 35
2 35 36
2 36 37
2 37 38
2 38 39
2 39 40
2 40 41
2 41 42
2 42 43
2 43 44
2 44 45
2 45 46
2 46 47
2 47 48
2 48 49
2 49 50
2 50 51
2 51 52
2 52 53
2 53 54
2 54 55
2 55 56
2 56 57
2 57 58
2 58 59
2 59 60
2 60 61
2 61 62
2 62 63
2 63 64
2 64 65
2 65 66
2 66 67
2 67 68
2 68 69
2 69 70
2 70 71
2 71 72
2 72 73
2 73 74
2 74 75
2 75 76
2 76 77
2 77 78
2 78 79
2 79 80
2 80 81
2 81 82
2 82 83
2 83 84
2 84 85
2 85 86
2 86 87
2 87 88
2 88 89
2 89 90
2 90 91
2 91 92
2 92 93
2 93 94
2 94 95
2 95 96
2 96 97
2 97 98
2 98 99
2 99 100
2 100 1

CELL_TYPES 100
3
3
3
3
3
3
3
3
3
3
3
3
3
3
3
3
3
3
3
3
3
3
3
3
3
3
3
3
3
3
3
3
3
3
3
3
3
3
3
3
3
3
3
3
3
3
3
3
3
3
3
3
3
3
3
3
3
3
3
3
3
3
3
3
3
3
3
3
3
3
3
3
3
3
3
3
3
3
3
3
3
3
3
3
3
3
3
3
3
3
3
3
3
3
3
3
3
3
3
3

POINT_DATA 101
SCALARS MODE1_224.6674_Hz float 1
LOOKUP_TABLE default
0.009839986425673726
0.0
9.918014452078463e-05
0.009847731018820213
0.01923125756797109
0.028156174108291288
0.03662511581195344
0.04464086832166672
0.05220633260853886
0.05932455773784835
0.06599878065283044
0.07223246627141555
0.07802934662242618
0.08339345874820135
0.08832918136445082
0.09284127036458886
0.09693489330658514
0.1006156630592228
0.10388967082205085
0.10676351877379067
0.10924435264962298
0.11133989460088535
0.11305847675240305
0.1144090759440515
0.11540135022666352
0.11604567777848339
0.11635319901867203
0.11633586281913487
0.1160064778546191
0.11537877028068476
0.11446744908360029
0.11328828059331075
0.11185817376935578
0.11019527792462196
0.10831909448671911
0.10625060412339407
0.10401240994341089
0.10162889633141185
0.09912640100617437
0.09653339472872755
0.09388065825194737
0.09120143905313122
0.08853156063396189
0.08590944452592082
0.08337599020785583
0.0809742430539394
0.07874876974297221
0.07674466192433503
0.0750061125953192
0.07357456543914814
0.07248652832715803
0.07177125602346147
0.07144861109297575
0.07152745916654862
0.072004905593091
0.07286653094130174
0.07408757674419217
0.0756348444580956
0.07746896438320602
0.07954668951337497
0.08182294861189174
0.0842525068231606
0.08679118850547911
0.08939669236272023
0.09202906909452273
0.09465094384422962
0.0972275603450378
0.09972671012242354
0.1021185946218455
0.10437565403648802
0.10647238523386
0.10838516268797715
0.11009207034340475
0.1115727483279264
0.11280825586717572
0.11378095020178268
0.11447438043331067
0.11487319479053339
0.11496305964658883
0.11473058861955157
0.11416328018151457
0.11324946233889582
0.11197824310113592
0.11033946561003373
0.10832366694849219
0.10592203978109833
0.103126396098001
0.0999291324380022
0.0963231960575097
0.09230205159027571
0.08785964781016664
0.0829903841671253
0.07768907681659548
0.0719509239068135
0.06577146992904184
0.05914656897777699
0.052072346822797856
0.04454516179784075
0.03656156479196276
0.0281182596948488
0.019212071430569067

