# vtk DataFile Version 2.0
mesh vtk view
ASCII
DATASET UNSTRUCTURED_GRID
POINTS 101 double
-0.0009528879189117109 0.0 0.0
2.0 0.0 0.0
0.0199999999999621 9.604440232070995e-06 0.0
0.04095288791875458 3.781327845291892e-05 0.0
0.061860440251140486 8.371985053156166e-05 0.0
0.08272266293100239 0.000146417696381229 0.0
0.10353957116711657 0.00022500078899501843 0.0
0.12431119375912467 0.0003185638475328072 0.0
0.14503757718670435 0.00042620272992459487 0.0
0.16571878947206414 0.0005470149004590441 0.0
0.18635492381601693 0.0006800999678319107 0.0
0.20694610200796856 0.0008245602891370286 0.0
0.22749247761027336 0.0009795016352932128 0.0
0.24799423891758615 0.0011440339134144212 0.0
0.2684516116919689 0.0013172719416475413 0.0
0.28886486167473735 0.00149833627202329 0.0
0.3092342968761244 0.0016863540568895486 0.0
0.32956026964409874 0.001880459954525662 0.0
0.3498431785139213 0.002079797069569706 0.0
0.3700834698401867 0.0022835179239276936 0.0
0.3902816392133345 0.0024907854538761803 0.0
0.4104382326628685 0.0027007740291169254 0.0
0.4305538476497833 0.0029126704895945594 0.0
0.4506291338509102 0.00312567519594517 0.0
0.47066479373818626 0.003339003089506371 0.0
0.4906615829560965 0.0035518847578870113 0.0
0.5106203105008041 0.0037635675021676853 0.0
0.5305418387047539 0.0039733164018815725 0.0
0.5504270830307965 0.00418041537400869 0.0
0.5702770116801509 0.004384168222305783 0.0
0.5900926450187868 0.004583899673388176 0.0
0.6098750548270723 0.004778956396079612 0.0
0.6296253633777948 0.00496870800065073 0.0
0.64934474234792 0.005152548014676671 0.0
0.669034411569704 0.005329894832359159 0.0
0.6886956376270231 0.005500192634278014 0.0
0.7083297323030278 0.005662912274661595 0.0
0.7279380508854554 0.005817552133394666 0.0
0.747521990336172 0.005963638930115661 0.0
0.7670829873317221 0.006100728497893183 0.0
0.7866225161818781 0.006228406514113198 0.0
0.8061420866333789 0.0063462891863542365 0.0
0.825643241566238 0.006454023891177283 0.0
0.8451275545901736 0.006551289763909671 0.0
0.8645966275488833 0.006637798237658463 0.0
0.8840520879400373 0.006713293529947525 0.0
0.9034955862590074 0.006777553075534344 0.0
0.9229287932744753 0.006830387904126519 0.0
0.9423533972441805 0.0068716429618841885 0.0
0.9617711010791659 0.006901197375762764 0.0
0.9811836194649745 0.006918964659919987 0.0
1.0005926759483386 0.006924892863582533 0.0
1.0199999999978964 0.006918964659939189 0.0
1.0394073240474717 0.006901197375800915 0.0
1.0588163805309132 0.006871642961940917 0.0
1.078228898916814 0.006830387904201334 0.0
1.0976466027518859 0.006777553075626629 0.0
1.117071206721672 0.0067132935300565555 0.0
1.1365044137372158 0.006637798237783408 0.0
1.1559479120562566 0.006551289764049606 0.0
1.1754033724474753 0.006454023891331201 0.0
1.1948724454062463 0.006346289186521034 0.0
1.2143567584302395 0.0062284065142917166 0.0
1.2338579133631524 0.006100728498082214 0.0
1.2533774838147054 0.005963638930313925 0.0
1.2729170126649112 0.005817552133600867 0.0
1.292478009660509 0.0056629122748744105 0.0
1.3120619491112713 0.005500192634496098 0.0
1.3316702676937446 0.005329894832581136 0.0
1.3513043623697945 0.005152548014901193 0.0
1.37096558842716 0.004968708000876468 0.0
1.39065525764899 0.0047789563963052655 0.0
1.4103746366191636 0.004583899673612463 0.0
1.4301249451699363 0.004384168222527488 0.0
1.4499073549782753 0.004180415374226653 0.0
1.4697229883169665 0.003973316402094725 0.0
1.489572916966381 0.003763567502375008 0.0
1.5094581612924864 0.0035518847580875614 0.0
1.5293796894965033 0.003339003089699296 0.0
1.5493384170412807 0.003125675196129709 0.0
1.5693352062592663 0.0029126704897700214 0.0
1.589370866146622 0.0027007740292827333 0.0
1.6094461523478332 0.002490785454031846 0.0
1.6295617673348357 0.0022835179240728387 0.0
1.6497183607844632 0.002079797069704018 0.0
1.6699165301577086 0.001880459954648959 0.0
1.6901568214840779 0.001686354057001744 0.0
1.7104397303540073 0.0014983362721243951 0.0
1.730765703122093 0.001317271941737657 0.0
1.751135138323597 0.0011440339134938474 0.0
1.7715483883064846 0.0009795016353623212 0.0
1.7920057610809772 0.0008245602891961791 0.0
1.8125075223883922 0.0006800999678815226 0.0
1.8330538979908022 0.000547014900499646 0.0
1.8536450761828638 0.00042620272995681156 0.0
1.8742812105269306 0.00031856384755735026 0.0
1.8949624228124105 0.00022500078901269532 0.0
1.9156888062401207 0.00014641769639299072 0.0
1.9364604288322715 8.37198505384816e-05 0.0
1.9572773370685344 3.7813278456178e-05 0.0
1.9781395597485485 9.604440232939929e-06 0.0

CELLS 100 300
2 0 2
2 2 3
2 3 4
2 4 5
2 5 6
2 6 7
2 7 8
2 8 9
2 9 10
2 10 11
2 11 12
2 12 13
2 13 14
2 14 15
2 15 16
2 16 17
2 17 18
2 18 19
2 19 20
2 20 21
2 21 22
2 22 23
2 23 24
2 24 25
2 25 26
2 26 27
2 27 28
2 28 29
2 29 30
2 30 31
2 31 32
2 32 33
2 33 34
2 34 35
2 35 36
2 36 37
2 37 38
2 38 39
2 39 40
2 40 41
2 41 42
2 42 43
2 43 44
2 44 45
2 45 46
2 46 47
2 47 48
2 48 49
2 49 50
2 50 51
2 51 52
2 52 53
2 53 54
2 54 55
2 55 56
2 56 57
2 57 58
2 58 59
2 59 60
2 60 61
2 61 62
2 62 63
2 63 64
2 64 65
2 65 66
2 66 67
2 67 68
2 68 69
2 69 70
2 70 71
2 71 72
2 72 73
2 73 74
2 74 75
2 75 76
2 76 77
2 77 78
2 78 79
2 79 80
2 80 81
2 81 82
2 82 83
2 83 84
2 84 85
2 85 86
2 86 87
2 87 88
2 88 89
2 89 90
2 90 91
2 91 92
2 92 93
2 93 94
2 94 95
2 95 96
2 96 97
2 97 98
2 98 99
2 99 100
2 100 1

CELL_TYPES 100
3
3
3
3
3
3
3
3
3
3
3
3
3
3
3
3
3
3
3
3
3
3
3
3
3
3
3
3
3
3
3
3
3
3
3
3
3
3
3
3
3
3
3
3
3
3
3
3
3
3
3
3
3
3
3
3
3
3
3
3
3
3
3
3
3
3
3
3
3
3
3
3
3
3
3
3
3
3
3
3
3
3
3
3
3
3
3
3
3
3
3
3
3
3
3
3
3
3
3
3

POINT_DATA 101
SCALARS MODE1_224.6674_Hz float 1
LOOKUP_TABLE default
0.009839986425673726
0.0
9.918014452078463e-05
0.009847731018820213
0.01923125756797109
0.028156174108291288
0.03662511581195344
0.04464086832166672
0.05220633260853886
0.05932455773784835
0.06599878065283044
0.07223246627141555
0.07802934662242618
0.08339345874820135
0.08832918136445082
0.09284127036458886
0.09693489330658514
0.1006156630592228
0.10388967082205085
0.10676351877379067
0.10924435264962298
0.11133989460088535
0.11305847675240305
0.1144090759440515
0.11540135022666352
0.11604567777848339
0.11635319901867203
0.11633586281913487
0.1160064778546191
0.11537877028068476
0.11446744908360029
0.11328828059331075
0.11185817376935578
0.11019527792462196
0.10831909448671911
0.10625060412339407
0.10401240994341089
0.10162889633141185
0.09912640100617437
0.09653339472872755
0.09388065825194737
0.09120143905313122
0.08853156063396189
0.08590944452592082
0.08337599020785583
0.0809742430539394
0.07874876974297221
0.07674466192433503
0.0750061125953192
0.07357456543914814
0.07248652832715803
0.07177125602346147
0.07144861109297575
0.07152745916654862
0.072004905593091
0.07286653094130174
0.07408757674419217
0.0756348444580956
0.07746896438320602
0.07954668951337497
0.08182294861189174
0.0842525068231606
0.08679118850547911
0.08939669236272023
0.09202906909452273
0.09465094384422962
0.0972275603450378
0.09972671012242354
0.1021185946218455
0.10437565403648802
0.10647238523386
0.10838516268797715
0.11009207034340475
0.1115727483279264
0.11280825586717572
0.11378095020178268
0.11447438043331067
0.11487319479053339
0.11496305964658883
0.11473058861955157
0.11416328018151457
0.11324946233889582
0.11197824310113592
0.11033946561003373
0.10832366694849219
0.10592203978109833
0.103126396098001
0.0999291324380022
0.0963231960575097
0.09230205159027571
0.08785964781016664
0.0829903841671253
0.07768907681659548
0.0719509239068135
0.06577146992904184
0.05914656897777699
0.052072346822797856
0.04454516179784075
0.03656156479196276
0.0281182596948488
0.019212071430569067

