# vtk DataFile Version 2.0
mesh vtk view
ASCII
DATASET UNSTRUCTURED_GRID
POINTS 101 double
-0.007450533365056646 0.0 0.0
2.0 0.0 0.0
0.0199999999999621 -7.55211707655851e-05 0.0
0.032549466634935784 -0.0002939583370943836 0.0
0.04570837348632001 -0.0006431255181937203 0.0
0.059476369221910214 -0.0011108487428110431 0.0
0.07385256278327298 -0.0016849792527640095 0.0
0.08883528634361543 -0.0023534112159521 0.0
0.10442188139366018 -0.003104103486880671 0.0
0.1206085078908248 -0.003925104954385241 0.0
0.1373899763694015 -0.004804583018728125 0.0
0.15475960286459484 -0.005730854743682781 0.0
0.17270908645211613 -0.006692420233745395 0.0
0.19122840914833 -0.0076779977923209265 0.0
0.21030575785460232 -0.008676560423703584 0.0
0.22992746796430988 -0.0096773732499812 0.0
0.25007798818283555 -0.010670031423682348 0.0
0.27073986604058753 -0.011644498128101425 0.0
0.2918937535074669 -0.01259114226979308 0.0
0.3135184320449621 -0.013500775481719171 0.0
0.33559085636018127 -0.014364688070960679 0.0
0.3580862160550304 -0.015174683561739455 0.0
0.3809780142943372 -0.01592311150269298 0.0
0.4042381625498145 -0.016602898226853582 0.0
0.42783709041261214 -0.017207575273539548 0.0
0.45174386940680705 -0.017731305203288906 0.0
0.4759263496798853 -0.018168904559968956 0.0
0.5003513083947201 -0.018515863758178257 0.0
0.5249846086011418 -0.018768363698912185 0.0
0.5497913673244729 -0.018923288942073943 0.0
0.5747361315736769 -0.018978237290653475 0.0
0.5997830609434601 -0.01893152566813798 0.0
0.6248961154630017 -0.01878219219782332 0.0
0.6500392473293067 -0.018529994420022577 0.0
0.6751765951556035 -0.018175403610575527 0.0
0.7002726793649292 -0.01771959519140061 0.0
0.7252925973661344 -0.017164435250954038 0.0
0.7502022171640735 -0.01651246321921794 0.0
0.774968368077662 -0.015766870768085434 0.0
0.7995590272688015 -0.01493147703359663 0.0
0.823943500821686 -0.014010700281265201 0.0
0.8480925981556457 -0.013009526159577933 0.0
0.8719787986051674 -0.01193347270951656 0.0
0.8955764090578806 -0.01078855231951095 0.0
0.9188617116047516 -0.009581230835463198 0.0
0.9418131002261696 -0.008318384054266837 0.0
0.9644112056126767 -0.0070072518464761625 0.0
0.9866390072993343 -0.005655390169358402 0.0
1.008481932377724 -0.00427062124539559 0.0
1.029927940138827 -0.0028609821933139306 0.0
1.0509675920930275 -0.0014346724088363171 0.0
1.071594106909741 -5.172819460639466e-13 0.0
1.091803399917975 0.0014346724078087374 0.0
1.1115941069100392 0.0028609821923006777 0.0
1.1309675920935498 0.004270621244400619 0.0
1.1499279401395426 0.005655390168385424 0.0
1.1684819323786235 0.007007251845528732 0.0
1.1866390073004052 0.008318384053348143 0.0
1.2044112056139067 0.009581230834576104 0.0
1.2218131002275445 0.010788552318658 0.0
1.238861711606254 0.011933472708699863 0.0
1.255576409059496 0.013009526158799377 0.0
1.2719787986068791 0.014010700280526232 0.0
1.2880925981574365 0.014931477032898304 0.0
1.3039435008235403 0.015766870767428522 0.0
1.3195590272707023 0.016512463218602818 0.0
1.3349683680795934 0.017164435250380725 0.0
1.3502022171660175 0.017719595190868784 0.0
1.365292597368076 0.018175403610084562 0.0
1.3802726793668536 0.018529994419571552 0.0
1.3951765951574995 0.018782192197411087 0.0
1.410039247331161 0.01893152566776314 0.0
1.4248961154648052 0.01897823729031446 0.0
1.4397830609452027 0.018923288941769024 0.0
1.4547361315753538 0.018768363698639535 0.0
1.4697913673260783 0.018515863757936023 0.0
1.484984608602674 0.018168904559755193 0.0
1.5003513083961733 0.017731305203101604 0.0
1.5159263496812574 0.017207575273376692 0.0
1.5317438694080945 0.016602898226713167 0.0
1.5478370904138168 0.015923111502573035 0.0
1.564238162550936 0.015174683561638069 0.0
1.5809780142953784 0.014364688070875998 0.0
1.5980862160559905 0.013500775481649466 0.0
1.615590856361062 0.012591142269736552 0.0
1.6335184320457636 0.011644498128056503 0.0
1.6518937535081968 0.010670031423647506 0.0
1.670739866041243 0.009677373249955015 0.0
1.690077988183415 0.008676560423684709 0.0
1.7099274679648209 0.007677997792308779 0.0
1.7303057578550527 0.006692420233739424 0.0
1.7512284091487258 0.0057308547436819264 0.0
1.7727090864524642 0.004804583018731124 0.0
1.7947596028648973 0.003925104954390953 0.0
1.8173899763696597 0.003104103486888023 0.0
1.840608507891041 0.0023534112159600026 0.0
1.8644218813938382 0.0016849792527714178 0.0
1.8888352863437565 0.001110848742817316 0.0
1.9138525627833751 0.0006431255181984708 0.0
1.939476369221974 0.00029395833709738167 0.0
1.9657083734863516 7.552117076661482e-05 0.0

CELLS 100 300
2 0 2
2 2 3
2 3 4
2 4 5
2 5 6
2 6 7
2 7 8
2 8 9
2 9 10
2 10 11
2 11 12
2 12 13
2 13 14
2 14 15
2 15 16
2 16 17
2 17 18
2 18 19
2 19 20
2 20 21
2 21 22
2 22 23
2 23 24
2 24 25
2 25 26
2 26 27
2 27 28
2 28 29
2 29 30
2 30 31
2 31 32
2 32 33
2 33 34
2 34 35
2 35 36
2 36 37
2 37 38
2 38 39
2 39 40
2 40 41
2 41 42
2 42 43
2 43 44
2 44 45
2 45 46
2 46 47
2 47 48
2 48 49
2 49 50
2 50 51
2 51 52
2 52 53
2 53 54
2 54 55
2 55 56
2 56 57
2 57 58
2 58 59
2 59 60
2 60 61
2 61 62
2 62 63
2 63 64
2 64 65
2 65 66
2 66 67
2 67 68
2 68 69
2 69 70
2 70 71
2 71 72
2 72 73
2 73 74
2 74 75
2 75 76
2 76 77
2 77 78
2 78 79
2 79 80
2 80 81
2 81 82
2 82 83
2 83 84
2 84 85
2 85 86
2 86 87
2 87 88
2 88 89
2 89 90
2 90 91
2 91 92
2 92 93
2 93 94
2 94 95
2 95 96
2 96 97
2 97 98
2 98 99
2 99 100
2 100 1

CELL_TYPES 100
3
3
3
3
3
3
3
3
3
3
3
3
3
3
3
3
3
3
3
3
3
3
3
3
3
3
3
3
3
3
3
3
3
3
3
3
3
3
3
3
3
3
3
3
3
3
3
3
3
3
3
3
3
3
3
3
3
3
3
3
3
3
3
3
3
3
3
3
3
3
3
3
3
3
3
3
3
3
3
3
3
3
3
3
3
3
3
3
3
3
3
3
3
3
3
3
3
3
3
3

POINT_DATA 101
SCALARS MODE2_619.3044_Hz float 1
LOOKUP_TABLE default
0.02667832639425423
0.0
0.00027042069938373756
0.026699083007919962
0.051226201980524154
0.07359708701882048
0.09382103666866715
0.11191006164382647
0.12787948854935227
0.14174868299595036
0.15354173192877954
0.16328807272750234
0.17102307352289706
0.17678857506283804
0.1806334097950444
0.1826139209232872
0.18279451462093835
0.18124829451165347
0.1780578524601111
0.17331632962095828
0.1671289269340401
0.1596151531053225
0.15091228306524565
0.14118081837980806
0.13061329096678734
0.11944868054755584
0.10799616053171027
0.09667354918822504
0.08606517552256139
0.07699038186628254
0.07052139906996478
0.0677930767341908
0.069501413157734
0.07546310527553234
0.0847864704938791
0.09641173806822753
0.10945160536274122
0.12325377272168135
0.13735162014845098
0.15140445605845224
0.16515386844506685
0.17839589591397076
0.19096401355270906
0.2027188105813003
0.21354169713990498
0.22333103645466829
0.23199975169910012
0.23947384093246493
0.24569145754367722
0.2506023455246499
0.25416749795121163
0.2563589555978672
0.25715969339290257
0.2565635628299336
0.2545752729356508
0.25121040379507276
0.24649545700115738
0.24046795850898092
0.23317664320751727
0.224681769745335
0.21505564287344375
0.2043834655890343
0.19276471631338998
0.18031536755705324
0.16717146778713352
0.15349495947738576
0.13948320450631146
0.1253846671393985
0.11152460413669278
0.09834571135528687
0.08646546035877668
0.07673032312149616
0.07018092003459671
0.06776358520223974
0.0697975269831806
0.07570959356788932
0.08439972464774075
0.09476895026186898
0.10595814165819112
0.11735092830459416
0.1285076113813822
0.13910468075092816
0.14889365925404818
0.15767548617693478
0.16528493749394357
0.17158112105142395
0.17644159358226474
0.17975864487127408
0.18143689083568149
0.18139166359648984
0.17954788762881996
0.17583924915808627
0.17020753655747473
0.16260207255394285
0.15297918586723497
0.1413016869830855
0.12753832390979083
0.11166320132919325
0.09365515225078395
0.07349705764895377
0.05117512820322159

