# vtk DataFile Version 2.0
mesh vtk view
ASCII
DATASET UNSTRUCTURED_GRID
POINTS 101 double
0.0008407834578632745 0.0 0.0
2.0 0.0 0.0
0.0199999999999621 -8.474506087121468e-06 0.0
0.03915921654213332 -3.336465745845788e-05 0.0
0.05835843507230817 -7.387045635137795e-05 0.0
0.07759765035470294 -0.00012919208504226092 0.0
0.0968768489698125 -0.00019853010793678103 0.0
0.11619600550619559 -0.00028108574782306523 0.0
0.13555507895238142 -0.00037606123228640736 0.0
0.15495400928877068 -0.000482660206287392 0.0
0.174392714279343 -0.0006000882069105096 0.0
0.1938710864628575 -0.0007275531962973783 0.0
0.213388990343119 -0.0008642661487881291 0.0
0.2329462597777818 -0.0010094416883068423 0.0
0.2525426955650072 -0.0011622987720419484 0.0
0.27217806322716426 -0.0013220614164911385 0.0
0.2918520909905362 -0.0014879594619613668 0.0
0.31156446795986076 -0.0016592293716402905 0.0
0.3313148424863781 -0.0018351150613850349 0.0
0.3511028207277985 -0.002014868756406789 0.0
0.37092796539844086 -0.0021977518710672183 0.0
0.39078979470756553 -0.0023830359080443462 0.0
0.41068778148370727 -0.0025700033731716706 0.0
0.4306213524826032 -0.0027579487023045622 0.0
0.450589887876073 -0.0029461791966232695 0.0
0.47059272091898363 -0.0031340159628414814 0.0
0.4906291377911905 -0.0033207948548538407 0.0
0.5106983776111249 -0.0035058674134249173 0.0
0.530799632617448 -0.003688601800595904 0.0
0.5509320485149668 -0.003868383725563927 0.0
0.5710947249807663 -0.004044617358871921 0.0
0.5912867163262867 -0.004216726231834953 0.0
0.6115070323108334 -0.0043841541182212335 0.0
0.6317546391017895 -0.0045463658953029465 0.0
0.6520284603765764 -0.004702848381493377 0.0
0.6723273785611849 -0.004853111147892367 0.0
0.6926502361998941 -0.004996687301171997 0.0
0.7129958374505834 -0.005133134235348236 0.0
0.7333629496998413 -0.0052620343501020555 0.0
0.7537503052918932 -0.005382995733435163 0.0
0.7741566033651751 -0.00549565280657047 0.0
0.7945805117902114 -0.005599666929136092 0.0
0.8150206692022846 -0.005694726962803486 0.0
0.8354756871222315 -0.005780549791685005 0.0
0.8559441521585545 -0.0058568807979339395 0.0
0.8764246282838969 -0.00592349429113017 0.0
0.8969156591788134 -0.005980193890177364 0.0
0.9174157706356434 -0.006026812856582224 0.0
0.9379234730152053 -0.006063214378133109 0.0
0.9584372637489321 -0.006089291802143617 0.0
0.9789556298789911 -0.006104968817576461 0.0
0.999477050628895 -0.006110199585514001 0.0
1.0199999999969902 -0.006104968817593403 0.0
1.040522949365112 -0.00608929180217728 0.0
1.061044370115116 -0.0060632143781831635 0.0
1.0815627362453013 -0.006026812856648237 0.0
1.1020765269791615 -0.005980193890258792 0.0
1.122584229358862 -0.005923494291226374 0.0
1.1430843408158344 -0.005856880798044185 0.0
1.1635753717108983 -0.005780549791808478 0.0
1.1840558478363916 -0.005694726962939297 0.0
1.20452431287287 -0.005599666929283266 0.0
1.2249793307929753 -0.005495652806727987 0.0
1.245419488205209 -0.005382995733601955 0.0
1.2658433966304092 -0.005262034350276994 0.0
1.286249694703857 -0.005133134235530178 0.0
1.3066370502960758 -0.004996687301359775 0.0
1.3270041625455011 -0.004853111148084794 0.0
1.34734976379636 -0.004702848381689239 0.0
1.367672621435239 -0.004546365895501054 0.0
1.3879715396200165 -0.004384154118420414 0.0
1.4082453608949703 -0.004216726232034059 0.0
1.4284929676860934 -0.004044617359069822 0.0
1.4487132836708052 -0.0038683837257595492 0.0
1.4689052750164884 -0.0036886018007882245 0.0
1.489067951482447 -0.0035058674136129934 0.0
1.5092003673801224 -0.003320794855036773 0.0
1.5293016223865994 -0.0031340159630184375 0.0
1.5493708622066844 -0.002946179196793497 0.0
1.5694072790790374 -0.002757948702467391 0.0
1.5894101121220914 -0.00257000337332649 0.0
1.6093786475157006 -0.0023830359081906476 0.0
1.6293122185147317 -0.0021977518712045707 0.0
1.6492102052910036 -0.002014868756534858 0.0
1.6690720346002559 -0.001835115061503546 0.0
1.6888971792710215 -0.001659229371749082 0.0
1.7086851575125601 -0.0014879594620603627 0.0
1.7284355320391909 -0.001322061416580349 0.0
1.7481479090086267 -0.0011622987721214624 0.0
1.7678219367721053 -0.0010094416883769245 0.0
1.787457304434363 -0.000864266148849107 0.0
1.8070537402216733 -0.0007275531963495699 0.0
1.826611009656407 -0.0006000882069542848 0.0
1.846128913536733 -0.00048266020632321713 0.0
1.865607285720308 -0.00037606123231483384 0.0
1.8850459907109351 -0.0002810857478447209 0.0
1.904444921047376 -0.00019853010795237828 0.0
1.9238039944936138 -0.0001291920850526389 0.0
1.9431231510300513 -7.387045635748378e-05 0.0
1.9624023496452114 -3.336465746133354e-05 0.0
1.9816415649276513 -8.474506087888176e-06 0.0

CELLS 100 300
2 0 2
2 2 3
2 3 4
2 4 5
2 5 6
2 6 7
2 7 8
2 8 9
2 9 10
2 10 11
2 11 12
2 12 13
2 13 14
2 14 15
2 15 16
2 16 17
2 17 18
2 18 19
2 19 20
2 20 21
2 21 22
2 22 23
2 23 24
2 24 25
2 25 26
2 26 27
2 27 28
2 28 29
2 29 30
2 30 31
2 31 32
2 32 33
2 33 34
2 34 35
2 35 36
2 36 37
2 37 38
2 38 39
2 39 40
2 40 41
2 41 42
2 42 43
2 43 44
2 44 45
2 45 46
2 46 47
2 47 48
2 48 49
2 49 50
2 50 51
2 51 52
2 52 53
2 53 54
2 54 55
2 55 56
2 56 57
2 57 58
2 58 59
2 59 60
2 60 61
2 61 62
2 62 63
2 63 64
2 64 65
2 65 66
2 66 67
2 67 68
2 68 69
2 69 70
2 70 71
2 71 72
2 72 73
2 73 74
2 74 75
2 75 76
2 76 77
2 77 78
2 78 79
2 79 80
2 80 81
2 81 82
2 82 83
2 83 84
2 84 85
2 85 86
2 86 87
2 87 88
2 88 89
2 89 90
2 90 91
2 91 92
2 92 93
2 93 94
2 94 95
2 95 96
2 96 97
2 97 98
2 98 99
2 99 100
2 100 1

CELL_TYPES 100
3
3
3
3
3
3
3
3
3
3
3
3
3
3
3
3
3
3
3
3
3
3
3
3
3
3
3
3
3
3
3
3
3
3
3
3
3
3
3
3
3
3
3
3
3
3
3
3
3
3
3
3
3
3
3
3
3
3
3
3
3
3
3
3
3
3
3
3
3
3
3
3
3
3
3
3
3
3
3
3
3
3
3
3
3
3
3
3
3
3
3
3
3
3
3
3
3
3
3
3

POINT_DATA 101
SCALARS MODE1_224.6674_Hz float 1
LOOKUP_TABLE default
0.009839986425673726
0.0
9.918014452078463e-05
0.009847731018820213
0.01923125756797109
0.028156174108291288
0.03662511581195344
0.04464086832166672
0.05220633260853886
0.05932455773784835
0.06599878065283044
0.07223246627141555
0.07802934662242618
0.08339345874820135
0.08832918136445082
0.09284127036458886
0.09693489330658514
0.1006156630592228
0.10388967082205085
0.10676351877379067
0.10924435264962298
0.11133989460088535
0.11305847675240305
0.1144090759440515
0.11540135022666352
0.11604567777848339
0.11635319901867203
0.11633586281913487
0.1160064778546191
0.11537877028068476
0.11446744908360029
0.11328828059331075
0.11185817376935578
0.11019527792462196
0.10831909448671911
0.10625060412339407
0.10401240994341089
0.10162889633141185
0.09912640100617437
0.09653339472872755
0.09388065825194737
0.09120143905313122
0.08853156063396189
0.08590944452592082
0.08337599020785583
0.0809742430539394
0.07874876974297221
0.07674466192433503
0.0750061125953192
0.07357456543914814
0.07248652832715803
0.07177125602346147
0.07144861109297575
0.07152745916654862
0.072004905593091
0.07286653094130174
0.07408757674419217
0.0756348444580956
0.07746896438320602
0.07954668951337497
0.08182294861189174
0.0842525068231606
0.08679118850547911
0.08939669236272023
0.09202906909452273
0.09465094384422962
0.0972275603450378
0.09972671012242354
0.1021185946218455
0.10437565403648802
0.10647238523386
0.10838516268797715
0.11009207034340475
0.1115727483279264
0.11280825586717572
0.11378095020178268
0.11447438043331067
0.11487319479053339
0.11496305964658883
0.11473058861955157
0.11416328018151457
0.11324946233889582
0.11197824310113592
0.11033946561003373
0.10832366694849219
0.10592203978109833
0.103126396098001
0.0999291324380022
0.0963231960575097
0.09230205159027571
0.08785964781016664
0.0829903841671253
0.07768907681659548
0.0719509239068135
0.06577146992904184
0.05914656897777699
0.052072346822797856
0.04454516179784075
0.03656156479196276
0.0281182596948488
0.019212071430569067

