# vtk DataFile Version 2.0
mesh vtk view
ASCII
DATASET UNSTRUCTURED_GRID
POINTS 101 double
0.006740958758860777 0.0 0.0
2.0 0.0 0.0
0.0199999999999621 6.832867831171988e-05 0.0
0.046740958758723875 0.0002659623049901567 0.0
0.07293051922644536 0.0005818754688419376 0.0
0.09856899927511611 0.0010050536244480869 0.0
0.12365720510046499 0.0015245050382150568 0.0
0.14819664568864527 0.0021292768144328534 0.0
0.17218972635758423 0.002808474583368227 0.0
0.19563992143151948 0.0035512854349199815 0.0
0.21855192614132038 0.004347003683611162 0.0
0.24093178788370623 0.005185059053808232 0.0
0.2627870170187475 0.006055046878150597 0.0
0.28412667743639686 0.006946759907337984 0.0
0.304961457178256 0.007850221335731817 0.0
0.32530371945984177 0.0087557186547449 0.0
0.345167534500112 0.009653837954760224 0.0
0.36456869262870145 0.010535498306377485 0.0
0.38352469920617566 0.011391985863146124 0.0
0.4020547519578543 0.012214987340603065 0.0
0.42017970138683075 0.012996622540393 0.0
0.43792199499614165 0.01372947560347856 0.0
0.4553056061128481 0.014406624692912703 0.0
0.47235594816730514 0.015021669824296103 0.0
0.4890997753389482 0.0155687585808215 0.0
0.5055650705345657 0.01604260946964235 0.0
0.521780921715955 0.016438532697114774 0.0
0.537777387640517 0.016752448162161288 0.0
0.5535853541203098 0.016980900489491985 0.0
0.569236381941947 0.017121070947590716 0.0
0.5847625476211274 0.017170786120115054 0.0
0.6001962781912121 0.01712852322355342 0.0
0.615570181244849 0.016993411988506818 0.0
0.630916871460938 0.0167652330466871 0.0
0.6462687948560824 0.01644441279052072 0.0
0.6616580519999146 0.016032014696981508 0.0
0.6771162214272841 0.015529727131815564 0.0
0.6926741844671328 0.014939847674530523 0.0
0.7083619526880607 0.01426526402826778 0.0
0.7242084991340615 0.013509431601825526 0.0
0.7402415944908644 0.012676347873525663 0.0
0.7564876492838369 0.011770523668189562 0.0
0.77297156316273 0.010796951499086417 0.0
0.7897165822768306 0.009761071146224197 0.0
0.8067441656866935 0.008668732660657182 0.0
0.8240738616957756 0.0075261570014795234 0.0
0.841723194917396 0.00633989452776415 0.0
0.8597075648198325 0.005116781581800461 0.0
0.8780401564154637 0.003863895412500773 0.0
0.8967318636791167 0.0025885076987126046 0.0
0.9157912261966339 0.0012980369413280969 0.0
0.9352243794576329 4.680169988197613e-13 0.0
0.9550350191169082 -0.001298036940398382 0.0
0.9752243794575227 -0.0025885076977958522 0.0
0.995791226196352 -0.003863895411600562 0.0
1.016731863678648 -0.005116781580920147 0.0
1.0380401564148187 -0.006339894526906951 0.0
1.059707564819022 -0.007526157000648323 0.0
1.081723194916431 -0.008668732659854574 0.0
1.1040738616946693 -0.009761071145452478 0.0
1.1267441656854598 -0.010796951498347498 0.0
1.1497165822754847 -0.011770523667485154 0.0
1.1729715631612863 -0.012676347872857072 0.0
1.1964876492823096 -0.01350943160119371 0.0
1.2202415944892693 -0.014265264027673431 0.0
1.2442084991324143 -0.014939847673973985 0.0
1.2683619526863754 -0.01552972713129685 0.0
1.292674184465424 -0.016032014696500334 0.0
1.3171162214255674 -0.016444412790076513 0.0
1.3416580519982026 -0.016765233046279027 0.0
1.3662687948543861 -0.016993411988133846 0.0
1.3909168714592677 -0.017128523223214277 0.0
1.4155701812432144 -0.017170786119808323 0.0
1.440196278189622 -0.017121070947314836 0.0
1.4647625476195865 -0.0169809004892453 0.0
1.4892363819404586 -0.016752448161942123 0.0
1.5135853541188782 -0.01643853269692137 0.0
1.537777387639146 -0.016042609469472887 0.0
1.5617809217146472 -0.015568758580674157 0.0
1.585565070533322 -0.015021669824169063 0.0
1.6090997753377698 -0.01440662469280418 0.0
1.632355948166191 -0.01372947560338683 0.0
1.6553056061117968 -0.012996622540316385 0.0
1.6779219949951514 -0.012214987340539999 0.0
1.7001797013859024 -0.01139198586309498 0.0
1.722054751956987 -0.010535498306336839 0.0
1.743524699205363 -0.009653837954728699 0.0
1.764568692627944 -0.008755718654721207 0.0
1.7851675344994133 -0.007850221335714738 0.0
1.8053037194591943 -0.006946759907326993 0.0
1.8249614571776571 -0.006055046878145195 0.0
1.8441266774358613 -0.005185059053807459 0.0
1.8627870170182945 -0.004347003683613876 0.0
1.8809317878833367 -0.0035512854349251497 0.0
1.8985519261410335 -0.0028084745833748793 0.0
1.9156399214313116 -0.002129276814440003 0.0
1.9321897263574528 -0.0015245050382217595 0.0
1.9481966456885802 -0.0010050536244537625 0.0
1.963657205100455 -0.0005818754688462357 0.0
1.978568999275155 -0.00026596230499286924 0.0
1.992930519226533 -6.832867831265153e-05 0.0

CELLS 100 300
2 0 2
2 2 3
2 3 4
2 4 5
2 5 6
2 6 7
2 7 8
2 8 9
2 9 10
2 10 11
2 11 12
2 12 13
2 13 14
2 14 15
2 15 16
2 16 17
2 17 18
2 18 19
2 19 20
2 20 21
2 21 22
2 22 23
2 23 24
2 24 25
2 25 26
2 26 27
2 27 28
2 28 29
2 29 30
2 30 31
2 31 32
2 32 33
2 33 34
2 34 35
2 35 36
2 36 37
2 37 38
2 38 39
2 39 40
2 40 41
2 41 42
2 42 43
2 43 44
2 44 45
2 45 46
2 46 47
2 47 48
2 48 49
2 49 50
2 50 51
2 51 52
2 52 53
2 53 54
2 54 55
2 55 56
2 56 57
2 57 58
2 58 59
2 59 60
2 60 61
2 61 62
2 62 63
2 63 64
2 64 65
2 65 66
2 66 67
2 67 68
2 68 69
2 69 70
2 70 71
2 71 72
2 72 73
2 73 74
2 74 75
2 75 76
2 76 77
2 77 78
2 78 79
2 79 80
2 80 81
2 81 82
2 82 83
2 83 84
2 84 85
2 85 86
2 86 87
2 87 88
2 88 89
2 89 90
2 90 91
2 91 92
2 92 93
2 93 94
2 94 95
2 95 96
2 96 97
2 97 98
2 98 99
2 99 100
2 100 1

CELL_TYPES 100
3
3
3
3
3
3
3
3
3
3
3
3
3
3
3
3
3
3
3
3
3
3
3
3
3
3
3
3
3
3
3
3
3
3
3
3
3
3
3
3
3
3
3
3
3
3
3
3
3
3
3
3
3
3
3
3
3
3
3
3
3
3
3
3
3
3
3
3
3
3
3
3
3
3
3
3
3
3
3
3
3
3
3
3
3
3
3
3
3
3
3
3
3
3
3
3
3
3
3
3

POINT_DATA 101
SCALARS MODE2_619.3044_Hz float 1
LOOKUP_TABLE default
0.02667832639425423
0.0
0.00027042069938373756
0.026699083007919962
0.051226201980524154
0.07359708701882048
0.09382103666866715
0.11191006164382647
0.12787948854935227
0.14174868299595036
0.15354173192877954
0.16328807272750234
0.17102307352289706
0.17678857506283804
0.1806334097950444
0.1826139209232872
0.18279451462093835
0.18124829451165347
0.1780578524601111
0.17331632962095828
0.1671289269340401
0.1596151531053225
0.15091228306524565
0.14118081837980806
0.13061329096678734
0.11944868054755584
0.10799616053171027
0.09667354918822504
0.08606517552256139
0.07699038186628254
0.07052139906996478
0.0677930767341908
0.069501413157734
0.07546310527553234
0.0847864704938791
0.09641173806822753
0.10945160536274122
0.12325377272168135
0.13735162014845098
0.15140445605845224
0.16515386844506685
0.17839589591397076
0.19096401355270906
0.2027188105813003
0.21354169713990498
0.22333103645466829
0.23199975169910012
0.23947384093246493
0.24569145754367722
0.2506023455246499
0.25416749795121163
0.2563589555978672
0.25715969339290257
0.2565635628299336
0.2545752729356508
0.25121040379507276
0.24649545700115738
0.24046795850898092
0.23317664320751727
0.224681769745335
0.21505564287344375
0.2043834655890343
0.19276471631338998
0.18031536755705324
0.16717146778713352
0.15349495947738576
0.13948320450631146
0.1253846671393985
0.11152460413669278
0.09834571135528687
0.08646546035877668
0.07673032312149616
0.07018092003459671
0.06776358520223974
0.0697975269831806
0.07570959356788932
0.08439972464774075
0.09476895026186898
0.10595814165819112
0.11735092830459416
0.1285076113813822
0.13910468075092816
0.14889365925404818
0.15767548617693478
0.16528493749394357
0.17158112105142395
0.17644159358226474
0.17975864487127408
0.18143689083568149
0.18139166359648984
0.17954788762881996
0.17583924915808627
0.17020753655747473
0.16260207255394285
0.15297918586723497
0.1413016869830855
0.12753832390979083
0.11166320132919325
0.09365515225078395
0.07349705764895377
0.05117512820322159

