# vtk DataFile Version 2.0
mesh vtk view
ASCII
DATASET UNSTRUCTURED_GRID
POINTS 101 double
0.0006165745357664012 0.0 0.0
2.0 0.0 0.0
0.0199999999999621 -6.214637797222409e-06 0.0
0.039383425464210975 -2.4467415469535777e-05 0.0
0.058796185719662206 -5.4171667991010494e-05 0.0
0.07823827692674037 -9.474086236432466e-05 0.0
0.0977096892444755 -0.00014558874582030608 0.0
0.11721040403781173 -0.00020612954840358116 0.0
0.13674039123167178 -0.00027577823701003206 0.0
0.15629960681168237 -0.00035395081794408747 0.0
0.17588799047142725 -0.00044006468506770704 0.0
0.19550546340599637 -0.0005335390106180774 0.0
0.2151519262515133 -0.0006337951757779613 0.0
0.23482725717025735 -0.0007402572380916844 0.0
0.2545313100808774 -0.0008523524328307621 0.0
0.2742639130331109 -0.0009695117054268348 0.0
0.29402486672623473 -0.0010911702721050022 0.0
0.3138139431703905 -0.0012167682058695463 0.0
0.333630884489821 -0.0013457510450156922 0.0
0.35347540186684706 -0.0014775704213649786 0.0
0.37334717462530254 -0.0016116847054492933 0.0
0.3932458494519784 -0.0017475596658991872 0.0
0.4131710397544668 -0.0018846691403258918 0.0
0.4331223251536416 -0.0020224957150233457 0.0
0.4530992511088372 -0.0021605314108570643 0.0
0.47310132867362276 -0.0022982783727504195 0.0
0.49312803437989217 -0.0024352495602261498 0.0
0.5131788102478285 -0.002570969436511606 0.0
0.5332530639191165 -0.0027049746537703293 0.0
0.5533501689106147 -0.0028368147320802133 0.0
0.5734694649855189 -0.0029660527298394084 0.0
0.5936102586388848 -0.0030922659033456317 0.0
0.6137718236942036 -0.003215046353362238 0.0
0.6339534020075558 -0.0033340016565554936 0.0
0.6541542042757172 -0.0034487554797618092 0.0
0.6743734109444146 -0.003558948175121069 0.0
0.6946101732127858 -0.0036642373541927974 0.0
0.7148636141299424 -0.003764298439255373 0.0
0.7351328297793825 -0.00385882519007484 0.0
0.7554168905468718 -0.00394753020451912 0.0
0.775714842467263 -0.004030145391485011 0.0
0.7960257086456073 -0.004106422414699801 0.0
0.8163484907477787 -0.004176133106055889 0.0
0.8366821705557242 -0.00423906984723567 0.0
0.8570257115823455 -0.004295045918484889 0.0
0.8773780607409144 -0.004343895813495458 0.0
0.8977381500638376 -0.0043854755194634 0.0
0.9181048984654974 -0.004419662761493631 0.0
0.9384772135438272 -0.0044463572106309465 0.0
0.9588539934152114 -0.004465480654905319 0.0
0.979234128577239 -0.004476977132889404 0.0
0.9996165037938255 -0.004480813029376934 0.0
1.0199999999971034 -0.0044769771329018285 0.0
1.0403834962004068 -0.004465480654930005 0.0
1.0607658714170907 -0.004446357210667653 0.0
1.0811460065792404 -0.00441966276154204 0.0
1.101522786450752 -0.0043854755195231136 0.0
1.1218951015292131 -0.0043438958135660075 0.0
1.142261849931007 -0.004295045918565736 0.0
1.162621939254068 -0.004239069847326216 0.0
1.182974288412777 -0.004176133106155484 0.0
1.203317829439542 -0.004106422414807728 0.0
1.2236515092476334 -0.0040301453916005234 0.0
1.2439742913499519 -0.0039475302046414334 0.0
1.2642851575284462 -0.0038588251902031286 0.0
1.2845831094489888 -0.003764298439388797 0.0
1.3048671702166301 -0.0036642373543305014 0.0
1.3251363858662224 -0.0035589481752621816 0.0
1.3453898267835331 -0.0034487554799054417 0.0
1.3656265890520585 -0.0033340016567007724 0.0
1.3858457957209094 -0.003215046353508303 0.0
1.4060465979892227 -0.0030922659034916433 0.0
1.4262281763027271 -0.0029660527299845358 0.0
1.4463897413581965 -0.0028368147322236693 0.0
1.4665305350117117 -0.0027049746539113645 0.0
1.4866498310867617 -0.0025709694366495284 0.0
1.5067469360784047 -0.0024352495603603 0.0
1.5268211897498352 -0.002298278372880187 0.0
1.5468719656179117 -0.0021605314109818976 0.0
1.5668986713243178 -0.002022495715142753 0.0
1.5869007488892382 -0.001884669140439426 0.0
1.6068776748445657 -0.0017475596660064749 0.0
1.6268289602438695 -0.0016116847055500183 0.0
1.6467541505464827 -0.001477570421458896 0.0
1.6666528253732817 -0.0013457510451026003 0.0
1.6865245981318573 -0.0012167682059493266 0.0
1.7063691155089997 -0.0010911702721775993 0.0
1.7261860568285428 -0.0009695117054922558 0.0
1.74597513327281 -0.0008523524328890724 0.0
1.7657360869660417 -0.0007402572381430779 0.0
1.7854686899183783 -0.0006337951758226785 0.0
1.8051727428290862 -0.0005335390106563512 0.0
1.8248480737479051 -0.00044006468509980885 0.0
1.8444945365934917 -0.0003539508179703592 0.0
1.8641120095281274 -0.0002757782370308781 0.0
1.8837003931879346 -0.000206129548419462 0.0
1.9032596087680054 -0.00014558874583174406 0.0
1.9227895959619272 -9.474086237193519e-05 0.0
1.9422903107553289 -5.41716679954881e-05 0.0
1.9617617230731268 -2.4467415471644594e-05 0.0
1.9812038142802635 -6.214637797784661e-06 0.0

CELLS 100 300
2 0 2
2 2 3
2 3 4
2 4 5
2 5 6
2 6 7
2 7 8
2 8 9
2 9 10
2 10 11
2 11 12
2 12 13
2 13 14
2 14 15
2 15 16
2 16 17
2 17 18
2 18 19
2 19 20
2 20 21
2 21 22
2 22 23
2 23 24
2 24 25
2 25 26
2 26 27
2 27 28
2 28 29
2 29 30
2 30 31
2 31 32
2 32 33
2 33 34
2 34 35
2 35 36
2 36 37
2 37 38
2 38 39
2 39 40
2 40 41
2 41 42
2 42 43
2 43 44
2 44 45
2 45 46
2 46 47
2 47 48
2 48 49
2 49 50
2 50 51
2 51 52
2 52 53
2 53 54
2 54 55
2 55 56
2 56 57
2 57 58
2 58 59
2 59 60
2 60 61
2 61 62
2 62 63
2 63 64
2 64 65
2 65 66
2 66 67
2 67 68
2 68 69
2 69 70
2 70 71
2 71 72
2 72 73
2 73 74
2 74 75
2 75 76
2 76 77
2 77 78
2 78 79
2 79 80
2 80 81
2 81 82
2 82 83
2 83 84
2 84 85
2 85 86
2 86 87
2 87 88
2 88 89
2 89 90
2 90 91
2 91 92
2 92 93
2 93 94
2 94 95
2 95 96
2 96 97
2 97 98
2 98 99
2 99 100
2 100 1

CELL_TYPES 100
3
3
3
3
3
3
3
3
3
3
3
3
3
3
3
3
3
3
3
3
3
3
3
3
3
3
3
3
3
3
3
3
3
3
3
3
3
3
3
3
3
3
3
3
3
3
3
3
3
3
3
3
3
3
3
3
3
3
3
3
3
3
3
3
3
3
3
3
3
3
3
3
3
3
3
3
3
3
3
3
3
3
3
3
3
3
3
3
3
3
3
3
3
3
3
3
3
3
3
3

POINT_DATA 101
SCALARS MODE1_224.6674_Hz float 1
LOOKUP_TABLE default
0.009839986425673726
0.0
9.918014452078463e-05
0.009847731018820213
0.01923125756797109
0.028156174108291288
0.03662511581195344
0.04464086832166672
0.05220633260853886
0.05932455773784835
0.06599878065283044
0.07223246627141555
0.07802934662242618
0.08339345874820135
0.08832918136445082
0.09284127036458886
0.09693489330658514
0.1006156630592228
0.10388967082205085
0.10676351877379067
0.10924435264962298
0.11133989460088535
0.11305847675240305
0.1144090759440515
0.11540135022666352
0.11604567777848339
0.11635319901867203
0.11633586281913487
0.1160064778546191
0.11537877028068476
0.11446744908360029
0.11328828059331075
0.11185817376935578
0.11019527792462196
0.10831909448671911
0.10625060412339407
0.10401240994341089
0.10162889633141185
0.09912640100617437
0.09653339472872755
0.09388065825194737
0.09120143905313122
0.08853156063396189
0.08590944452592082
0.08337599020785583
0.0809742430539394
0.07874876974297221
0.07674466192433503
0.0750061125953192
0.07357456543914814
0.07248652832715803
0.07177125602346147
0.07144861109297575
0.07152745916654862
0.072004905593091
0.07286653094130174
0.07408757674419217
0.0756348444580956
0.07746896438320602
0.07954668951337497
0.08182294861189174
0.0842525068231606
0.08679118850547911
0.08939669236272023
0.09202906909452273
0.09465094384422962
0.0972275603450378
0.09972671012242354
0.1021185946218455
0.10437565403648802
0.10647238523386
0.10838516268797715
0.11009207034340475
0.1115727483279264
0.11280825586717572
0.11378095020178268
0.11447438043331067
0.11487319479053339
0.11496305964658883
0.11473058861955157
0.11416328018151457
0.11324946233889582
0.11197824310113592
0.11033946561003373
0.10832366694849219
0.10592203978109833
0.103126396098001
0.0999291324380022
0.0963231960575097
0.09230205159027571
0.08785964781016664
0.0829903841671253
0.07768907681659548
0.0719509239068135
0.06577146992904184
0.05914656897777699
0.052072346822797856
0.04454516179784075
0.03656156479196276
0.0281182596948488
0.019212071430569067

