# vtk DataFile Version 2.0
mesh vtk view
ASCII
DATASET UNSTRUCTURED_GRID
POINTS 101 double
0.0010643619092938073 0.0 0.0
2.0 0.0 0.0
0.0199999999999621 1.0788738680797879e-05 0.0
0.04106436190920864 4.199404815634054e-05 0.0
0.06204166093039522 9.18750740276744e-05 0.0
0.08293194725383375 0.00015869267754443483 0.0
0.10373534817358818 0.00024071132182343008 0.0
0.12445210195063333 0.0003362016022788717 0.0
0.1450825883720146 0.0004434433552686676 0.0
0.16562735601524162 0.000560729279197892 0.0
0.18608714623255282 0.0006863690026754469 0.0
0.20646291387606167 0.0008186935348118264 0.0
0.22675584479209496 0.0009560600333921999 0.0
0.24696737012117012 0.0010968568274744188 0.0
0.2670991774487945 0.0012395086319576555 0.0
0.28715321886162903 0.0013824818928544582 0.0
0.30713171597320144 0.0015242902033831937 0.0
0.32703716199345584 0.0016634997325859192 0.0
0.3468723209266921 0.0017987346099704413 0.0
0.3666402239926974 0.0019286822116741686 0.0
0.38634416337617095 0.002052098295851527 0.0
0.40598768341969715 0.0021678119373913524 0.0
0.42557456938544375 0.0022747302146704272 0.0
0.44510883392030887 0.002371842603836228 0.0
0.4645947013684138 0.0024582250390770798 0.0
0.4840365900834622 0.0025330436004698453 0.0
0.5034390929015271 0.0025955577942812814 0.0
0.5228069559421982 0.0026451233940254673 0.0
0.5421450559126427 0.002681194814130314 0.0
0.5614583760949574 0.002703326991724851 0.0
0.5807519812021472 0.0027111767558076413 0.0
0.6000309912921113 0.0027045036668768563 0.0
0.6193005549321101 0.002683170313974762 0.0
0.6385658218082855 0.002647142060003227 0.0
0.6578319149758908 0.00259648623008222 0.0
0.6771039029459204 0.00253137074162866 0.0
0.6963867718028243 0.0024520621787077214 0.0
0.7156853975459091 0.002358923317031136 0.0
0.7350045188439012 0.002252410109726492 0.0
0.7543487103879575 0.0021330681476566626 0.0
0.773722357023193 0.002001528611609316 0.0
0.7931296288325604 0.001858503737082563 0.0
0.8125744573397049 0.0017047818156452242 0.0
0.8320605129892507 0.001541221759930137 0.0
0.8515911840539168 0.0013687472622090292 0.0
0.8711695571079332 0.0011883405791809777 0.0
0.8907983991955083 0.0010010359780680239 0.0
0.9104801418116332 0.0008079128813369152 0.0
0.930216866800368 0.0006100887493422275 0.0
0.9500102942630009 0.0004087117419019904 0.0
0.9698617725551913 0.00020495320126233117 0.0
0.989772270438476 7.389742086627814e-14 0.0
1.009742371437335 -0.00020495320111553407 0.0
1.0297722704385293 -0.00040871174175723996 0.0
1.049861772555231 -0.000610088749200089 0.0
1.0700102942630059 -0.0008079128811979183 0.0
1.0902168668003407 -0.0010010359779326766 0.0
1.1104801418115753 -0.0011883405790497356 0.0
1.1307983991954214 -0.0013687472620823016 0.0
1.1511695571078193 -0.0015412217598082866 0.0
1.1715911840537774 -0.001704781815528553 0.0
1.1920605129890893 -0.0018585037369713408 0.0
1.2125744573395234 -0.002001528611503749 0.0
1.2331296288323603 -0.002133068147556902 0.0
1.2537223570229776 -0.002252410109632648 0.0
1.2743487103877296 -0.0023589233169432613 0.0
1.2950045188436625 -0.0024520621786258195 0.0
1.3156853975456615 -0.002531370741552685 0.0
1.3363867718025708 -0.002596486230012082 0.0
1.357103902945663 -0.0026471420599387947 0.0
1.3778319149756315 -0.002683170313915871 0.0
1.398565821808025 -0.0027045036668233075 0.0
1.4193005549318507 -0.00271117675575921 0.0
1.4400309912918543 -0.002703326991681291 0.0
1.4607519812018934 -0.0026811948140913642 0.0
1.4814583760947064 -0.002645123393990862 0.0
1.5021450559123963 -0.002595557794250744 0.0
1.5228069559419568 -0.002533043600443088 0.0
1.5434390929012913 -0.002458225039053815 0.0
1.5640365900832311 -0.0023718426038161684 0.0
1.5845947013681885 -0.0022747302146532925 0.0
1.605108833920089 -0.002167811937376869 0.0
1.6255745693852295 -0.00205209829583943 0.0
1.645987683419487 -0.0019286822116642108 0.0
1.6663441633759661 -0.0017987346099623657 0.0
1.6866402239924978 -0.0016634997325795015 0.0
1.7068723209264964 -0.0015242902033782162 0.0
1.7270371619932636 -0.0013824818928507173 0.0
1.747131715973014 -0.0012395086319549591 0.0
1.767153218861445 -0.0010968568274726835 0.0
1.7870991774486154 -0.000956060033391347 0.0
1.8069673701210072 -0.0008186935348117044 0.0
1.8267558447919623 -0.0006863690026758753 0.0
1.846462913875961 -0.000560729279198708 0.0
1.8660871462324842 -0.0004434433552697179 0.0
1.8856273560152033 -0.0003362016022800006 0.0
1.905082588372007 -0.00024071132182448842 0.0
1.9244521019506509 -0.00015869267754533095 0.0
1.943735348173623 -9.187507402835304e-05 0.0
1.9629319472538826 -4.199404815676884e-05 0.0
1.9820416609304605 -1.0788738680944983e-05 0.0

CELLS 100 300
2 0 2
2 2 3
2 3 4
2 4 5
2 5 6
2 6 7
2 7 8
2 8 9
2 9 10
2 10 11
2 11 12
2 12 13
2 13 14
2 14 15
2 15 16
2 16 17
2 17 18
2 18 19
2 19 20
2 20 21
2 21 22
2 22 23
2 23 24
2 24 25
2 25 26
2 26 27
2 27 28
2 28 29
2 29 30
2 30 31
2 31 32
2 32 33
2 33 34
2 34 35
2 35 36
2 36 37
2 37 38
2 38 39
2 39 40
2 40 41
2 41 42
2 42 43
2 43 44
2 44 45
2 45 46
2 46 47
2 47 48
2 48 49
2 49 50
2 50 51
2 51 52
2 52 53
2 53 54
2 54 55
2 55 56
2 56 57
2 57 58
2 58 59
2 59 60
2 60 61
2 61 62
2 62 63
2 63 64
2 64 65
2 65 66
2 66 67
2 67 68
2 68 69
2 69 70
2 70 71
2 71 72
2 72 73
2 73 74
2 74 75
2 75 76
2 76 77
2 77 78
2 78 79
2 79 80
2 80 81
2 81 82
2 82 83
2 83 84
2 84 85
2 85 86
2 86 87
2 87 88
2 88 89
2 89 90
2 90 91
2 91 92
2 92 93
2 93 94
2 94 95
2 95 96
2 96 97
2 97 98
2 98 99
2 99 100
2 100 1

CELL_TYPES 100
3
3
3
3
3
3
3
3
3
3
3
3
3
3
3
3
3
3
3
3
3
3
3
3
3
3
3
3
3
3
3
3
3
3
3
3
3
3
3
3
3
3
3
3
3
3
3
3
3
3
3
3
3
3
3
3
3
3
3
3
3
3
3
3
3
3
3
3
3
3
3
3
3
3
3
3
3
3
3
3
3
3
3
3
3
3
3
3
3
3
3
3
3
3
3
3
3
3
3
3

POINT_DATA 101
SCALARS MODE2_619.3044_Hz float 1
LOOKUP_TABLE default
0.02667832639425423
0.0
0.00027042069938373756
0.026699083007919962
0.051226201980524154
0.07359708701882048
0.09382103666866715
0.11191006164382647
0.12787948854935227
0.14174868299595036
0.15354173192877954
0.16328807272750234
0.17102307352289706
0.17678857506283804
0.1806334097950444
0.1826139209232872
0.18279451462093835
0.18124829451165347
0.1780578524601111
0.17331632962095828
0.1671289269340401
0.1596151531053225
0.15091228306524565
0.14118081837980806
0.13061329096678734
0.11944868054755584
0.10799616053171027
0.09667354918822504
0.08606517552256139
0.07699038186628254
0.07052139906996478
0.0677930767341908
0.069501413157734
0.07546310527553234
0.0847864704938791
0.09641173806822753
0.10945160536274122
0.12325377272168135
0.13735162014845098
0.15140445605845224
0.16515386844506685
0.17839589591397076
0.19096401355270906
0.2027188105813003
0.21354169713990498
0.22333103645466829
0.23199975169910012
0.23947384093246493
0.24569145754367722
0.2506023455246499
0.25416749795121163
0.2563589555978672
0.25715969339290257
0.2565635628299336
0.2545752729356508
0.25121040379507276
0.24649545700115738
0.24046795850898092
0.23317664320751727
0.224681769745335
0.21505564287344375
0.2043834655890343
0.19276471631338998
0.18031536755705324
0.16717146778713352
0.15349495947738576
0.13948320450631146
0.1253846671393985
0.11152460413669278
0.09834571135528687
0.08646546035877668
0.07673032312149616
0.07018092003459671
0.06776358520223974
0.0697975269831806
0.07570959356788932
0.08439972464774075
0.09476895026186898
0.10595814165819112
0.11735092830459416
0.1285076113813822
0.13910468075092816
0.14889365925404818
0.15767548617693478
0.16528493749394357
0.17158112105142395
0.17644159358226474
0.17975864487127408
0.18143689083568149
0.18139166359648984
0.17954788762881996
0.17583924915808627
0.17020753655747473
0.16260207255394285
0.15297918586723497
0.1413016869830855
0.12753832390979083
0.11166320132919325
0.09365515225078395
0.07349705764895377
0.05117512820322159

