# vtk DataFile Version 2.0
mesh vtk view
ASCII
DATASET UNSTRUCTURED_GRID
POINTS 101 double
0.0010649923799601478 0.0 0.0
2.0 0.0 0.0
0.0199999999999621 -1.0734374377020528e-05 0.0
0.03893500762005566 -4.226189944737999e-05 0.0
0.05792068442495413 -9.356924471174541e-05 0.0
0.0769570237826655 -0.0001636433077201972 0.0
0.09604400869514948 -0.000251471470053256 0.0
0.11518160697457946 -0.00035604194724254935 0.0
0.13436976667309106 -0.0004763442275627827 0.0
0.15360841176585902 -0.0006113695946306966 0.0
0.17289743808725877 -0.0007601117287533123 0.0
0.1922367095197186 -0.0009215673819766793 0.0
0.2116260544347247 -0.001094737121798297 0.0
0.23106526238530625 -0.0012786261385220007 0.0
0.25055408104913696 -0.001472245111253135 0.0
0.2700922134212176 -0.0016746111275554424 0.0
0.2896793152548377 -0.0018847486518177316 0.0
0.309314992749331 -0.0021016905374110348 0.0
0.32899880048293517 -0.002324479077754378 0.0
0.34873023958875005 -0.0025521670914486 0.0
0.36850875617157913 -0.002783819036685144 0.0
0.3883337399631527 -0.003018512150189506 0.0
0.40820452321294776 -0.0032553376060174503 0.0
0.4281203798115648 -0.0034934016895857797 0.0
0.4480805246433089 -0.0037318269823894755 0.0
0.46808411316434456 -0.003969753552932544 0.0
0.48813024120248877 -0.0042063401494815324 0.0
0.5082179449744212 -0.00444076539033823 0.0
0.5283462013157795 -0.004672228947421479 0.0
0.5485139281193188 -0.004899952719047642 0.0
0.5687199849760137 -0.005123181987904434 0.0
0.5889631740136885 -0.005341186560324274 0.0
0.6092422409274632 -0.00555326188308023 0.0
0.6295558761960232 -0.005758730134050399 0.0
0.6499027164774354 -0.005956941283224945 0.0
0.670281346177955 -0.006147274120663665 0.0
0.6906902991870024 -0.006329137248151197 0.0
0.7111280607712245 -0.0065019700314411 0.0
0.7315930696202999 -0.006665243510129271 0.0
0.7520837200369146 -0.006818461262351208 0.0
0.7725983642630873 -0.00696116022165593 0.0
0.7931353149348154 -0.007092911443572385 0.0
0.8136928476567903 -0.007213320819551084 0.0
0.8342692036887387 -0.007322029736134341 0.0
0.8548625927347633 -0.007418715677382991 0.0
0.8754711958268794 -0.007503092768764884 0.0
0.8960931682937892 -0.007574912260891329 0.0
0.9167266428057894 -0.007633962951670818 0.0
0.9373697324865834 -0.007680071545635272 0.0
0.958020534082653 -0.007713102949381916 0.0
0.9786771311807432 -0.007732960502263518 0.0
0.9993375974639646 -0.00773958614165107 0.0
1.019999999996877 -0.007732960502284979 0.0
1.040662402529817 -0.007713102949424556 0.0
1.0613228688131415 -0.007680071545698676 0.0
1.0819794659113622 -0.007633962951754435 0.0
1.1026302675075708 -0.0075749122609944704 0.0
1.1232733571885107 -0.007503092768886742 0.0
1.143906831700662 -0.007418715677522635 0.0
1.1645288041677284 -0.007322029736290739 0.0
1.185137407260006 -0.00721332081972311 0.0
1.2057307963061978 -0.007092911443758805 0.0
1.2263071523383173 -0.006961160221855451 0.0
1.246864685060466 -0.0068184612625624775 0.0
1.267401635732372 -0.00666524351035086 0.0
1.2879162799587252 -0.00650197003167156 0.0
1.3084069303755217 -0.006329137248389049 0.0
1.32887193922478 -0.006147274120907406 0.0
1.349309700809187 -0.005956941283473037 0.0
1.3697186538184196 -0.005758730134301336 0.0
1.3900972835191234 -0.005553261883332525 0.0
1.4104441238007177 -0.005341186560576475 0.0
1.4307577590694596 -0.005123181988155109 0.0
1.4510368259834139 -0.00489995271929543 0.0
1.471280015021265 -0.004672228947665085 0.0
1.491486071878132 -0.004440765390576459 0.0
1.5116537986818401 -0.004206340149713246 0.0
1.5317820550233634 -0.003969753553156688 0.0
1.551869758795457 -0.003731826982605097 0.0
1.571915886833757 -0.003493401689792029 0.0
1.5919194753549446 -0.0032553376062135547 0.0
1.6118796201868353 -0.003018512150374821 0.0
1.631795476785594 -0.0027838190368591233 0.0
1.6516662600355247 -0.002552167091610821 0.0
1.67149124382723 -0.0023244790779044923 0.0
1.6912697604101854 -0.0021016905375488373 0.0
1.7110011995161205 -0.0018847486519431263 0.0
1.7306850072498388 -0.0016746111276684423 0.0
1.7503206847444435 -0.0014722451113538526 0.0
1.7699077865781687 -0.001278626138610771 0.0
1.7894459189503478 -0.0010947371218755358 0.0
1.8089347376142604 -0.0009215673820427888 0.0
1.8283739455649088 -0.0007601117288087609 0.0
1.8477632904799743 -0.0006113695946760752 0.0
1.8671025619124886 -0.0004763442275987896 0.0
1.8863915882339357 -0.0003560419472699799 0.0
1.9056302333267467 -0.00025147147007301254 0.0
1.9248183930253004 -0.00016364330773334262 0.0
1.9439559913047737 -9.356924471947947e-05 0.0
1.963042976217296 -4.226189945102249e-05 0.0
1.9820793155750394 -1.073437437799169e-05 0.0

CELLS 100 300
2 0 2
2 2 3
2 3 4
2 4 5
2 5 6
2 6 7
2 7 8
2 8 9
2 9 10
2 10 11
2 11 12
2 12 13
2 13 14
2 14 15
2 15 16
2 16 17
2 17 18
2 18 19
2 19 20
2 20 21
2 21 22
2 22 23
2 23 24
2 24 25
2 25 26
2 26 27
2 27 28
2 28 29
2 29 30
2 30 31
2 31 32
2 32 33
2 33 34
2 34 35
2 35 36
2 36 37
2 37 38
2 38 39
2 39 40
2 40 41
2 41 42
2 42 43
2 43 44
2 44 45
2 45 46
2 46 47
2 47 48
2 48 49
2 49 50
2 50 51
2 51 52
2 52 53
2 53 54
2 54 55
2 55 56
2 56 57
2 57 58
2 58 59
2 59 60
2 60 61
2 61 62
2 62 63
2 63 64
2 64 65
2 65 66
2 66 67
2 67 68
2 68 69
2 69 70
2 70 71
2 71 72
2 72 73
2 73 74
2 74 75
2 75 76
2 76 77
2 77 78
2 78 79
2 79 80
2 80 81
2 81 82
2 82 83
2 83 84
2 84 85
2 85 86
2 86 87
2 87 88
2 88 89
2 89 90
2 90 91
2 91 92
2 92 93
2 93 94
2 94 95
2 95 96
2 96 97
2 97 98
2 98 99
2 99 100
2 100 1

CELL_TYPES 100
3
3
3
3
3
3
3
3
3
3
3
3
3
3
3
3
3
3
3
3
3
3
3
3
3
3
3
3
3
3
3
3
3
3
3
3
3
3
3
3
3
3
3
3
3
3
3
3
3
3
3
3
3
3
3
3
3
3
3
3
3
3
3
3
3
3
3
3
3
3
3
3
3
3
3
3
3
3
3
3
3
3
3
3
3
3
3
3
3
3
3
3
3
3
3
3
3
3
3
3

POINT_DATA 101
SCALARS MODE1_224.6674_Hz float 1
LOOKUP_TABLE default
0.009839986425673726
0.0
9.918014452078463e-05
0.009847731018820213
0.01923125756797109
0.028156174108291288
0.03662511581195344
0.04464086832166672
0.05220633260853886
0.05932455773784835
0.06599878065283044
0.07223246627141555
0.07802934662242618
0.08339345874820135
0.08832918136445082
0.09284127036458886
0.09693489330658514
0.1006156630592228
0.10388967082205085
0.10676351877379067
0.10924435264962298
0.11133989460088535
0.11305847675240305
0.1144090759440515
0.11540135022666352
0.11604567777848339
0.11635319901867203
0.11633586281913487
0.1160064778546191
0.11537877028068476
0.11446744908360029
0.11328828059331075
0.11185817376935578
0.11019527792462196
0.10831909448671911
0.10625060412339407
0.10401240994341089
0.10162889633141185
0.09912640100617437
0.09653339472872755
0.09388065825194737
0.09120143905313122
0.08853156063396189
0.08590944452592082
0.08337599020785583
0.0809742430539394
0.07874876974297221
0.07674466192433503
0.0750061125953192
0.07357456543914814
0.07248652832715803
0.07177125602346147
0.07144861109297575
0.07152745916654862
0.072004905593091
0.07286653094130174
0.07408757674419217
0.0756348444580956
0.07746896438320602
0.07954668951337497
0.08182294861189174
0.0842525068231606
0.08679118850547911
0.08939669236272023
0.09202906909452273
0.09465094384422962
0.0972275603450378
0.09972671012242354
0.1021185946218455
0.10437565403648802
0.10647238523386
0.10838516268797715
0.11009207034340475
0.1115727483279264
0.11280825586717572
0.11378095020178268
0.11447438043331067
0.11487319479053339
0.11496305964658883
0.11473058861955157
0.11416328018151457
0.11324946233889582
0.11197824310113592
0.11033946561003373
0.10832366694849219
0.10592203978109833
0.103126396098001
0.0999291324380022
0.0963231960575097
0.09230205159027571
0.08785964781016664
0.0829903841671253
0.07768907681659548
0.0719509239068135
0.06577146992904184
0.05914656897777699
0.052072346822797856
0.04454516179784075
0.03656156479196276
0.0281182596948488
0.019212071430569067

