# vtk DataFile Version 2.0
mesh vtk view
ASCII
DATASET UNSTRUCTURED_GRID
POINTS 101 double
-0.000616574535766401 0.0 0.0
2.0 0.0 0.0
0.0199999999999621 6.214637797222407e-06 0.0
0.04061657453563809 2.4467415469535767e-05 0.0
0.06120381428010943 5.417166799101047e-05 0.0
0.08176172307294624 9.474086236432462e-05 0.0
0.10229031075512206 0.000145588745820306 0.0
0.12278959596170046 0.00020612954840358106 0.0
0.1432596087677688 0.0002757782370100319 0.0
0.16370039318769664 0.0003539508179440873 0.0
0.18411200952789056 0.0004400646850677069 0.0
0.20449453659326022 0.0005335390106180771 0.0
0.2248480737476819 0.000633795175777961 0.0
0.24517274282887283 0.0007402572380916841 0.0
0.2654686899181636 0.0008523524328307618 0.0
0.28573608696581737 0.0009695117054268344 0.0
0.30597513327257664 0.0010911702721050018 0.0
0.3261860568283041 0.0012167682058695456 0.0
0.346369115508757 0.0013457510450156915 0.0
0.3665245981316139 0.001477570421364978 0.0
0.3866528253730419 0.0016116847054492927 0.0
0.4067541505462492 0.0017475596658991866 0.0
0.42682896024364403 0.001884669140325891 0.0
0.4468776748443526 0.002022495715023345 0.0
0.46690074888904 0.0021605314108570635 0.0
0.4868986713241379 0.0022982783727504186 0.0
0.5068719656177516 0.0024352495602261485 0.0
0.5268211897496984 0.002570969436511605 0.0
0.5467469360782936 0.002704974653770328 0.0
0.5666498310866789 0.002836814732080212 0.0
0.586530535011658 0.002966052729839407 0.0
0.606389741358175 0.0030922659033456304 0.0
0.6262281763027395 0.0032150463533622362 0.0
0.6460465979892706 0.0033340016565554923 0.0
0.6658457957209926 0.003448755479761808 0.0
0.6856265890521784 0.003558948175121067 0.0
0.7053898267836902 0.0036642373541927956 0.0
0.7251363858664169 0.0037642984392553713 0.0
0.74486717021686 0.0038588251900748384 0.0
0.7645831094492542 0.003947530204519118 0.0
0.7842851575287463 0.004030145391485009 0.0
0.803974291350285 0.004106422414699799 0.0
0.8236515092479968 0.0041761331060558874 0.0
0.8433178294399345 0.004239069847235669 0.0
0.8629742884131967 0.004295045918484887 0.0
0.882621939254511 0.004343895813495456 0.0
0.9022618499314711 0.004385475519463398 0.0
0.9218951015296943 0.004419662761493629 0.0
0.9415227864512478 0.004446357210630945 0.0
0.961146006579747 0.0044654806549053174 0.0
0.9807658714176026 0.004476977132889403 0.0
1.000383496200943 0.0044808130293769325 0.0
1.0199999999977265 0.004476977132901827 0.0
1.0396165037945293 0.0044654806549300026 0.0
1.0592341285779512 0.0044463572106676515 0.0
1.0788539934159054 0.004419662761542038 0.0
1.0984772135445 0.004385475519523112 0.0
1.118104898466145 0.004343895813566006 0.0
1.1377381500644568 0.004295045918565734 0.0
1.157378060741502 0.004239069847326214 0.0
1.177025711582897 0.004176133106155482 0.0
1.1966821705562383 0.0041064224148077266 0.0
1.2163484907482525 0.004030145391600521 0.0
1.236025708646038 0.003947530204641432 0.0
1.2557148424676499 0.003858825190203127 0.0
1.2754168905472134 0.0037642984393887954 0.0
1.2951328297796778 0.0036642373543305 0.0
1.3148636141301895 0.00355894817526218 0.0
1.334610173212985 0.0034487554799054404 0.0
1.3543734109445653 0.003334001656700771 0.0
1.3741542042758206 0.0032150463535083017 0.0
1.3939534020076112 0.0030922659034916416 0.0
1.413771823694213 0.0029660527299845345 0.0
1.4336102586388493 0.002836814732223668 0.0
1.4534694649854403 0.002704974653911363 0.0
1.4733501689104942 0.0025709694366495275 0.0
1.4932530639189574 0.002435249560360299 0.0
1.5131788102476327 0.0022982783728801863 0.0
1.5331280343796623 0.0021605314109818968 0.0
1.5531013286733601 0.0020224957151427523 0.0
1.573099251108546 0.0018846691404394251 0.0
1.5931223251533242 0.0017475596660064742 0.0
1.6131710397541266 0.0016116847055500177 0.0
1.6332458494516173 0.0014775704214588954 0.0
1.6533471746249244 0.0013457510451025997 0.0
1.6734754018664546 0.0012167682059493262 0.0
1.6936308844894183 0.0010911702721775986 0.0
1.7138139431699793 0.0009695117054922554 0.0
1.7340248667258182 0.000852352432889072 0.0
1.7542639130326922 0.0007402572381430775 0.0
1.7745313100804618 0.0006337951758226782 0.0
1.7948272571698578 0.000533539010656351 0.0
1.815151926251145 0.0004400646850998087 0.0
1.8355054634056642 0.00035395081797035905 0.0
1.8558879904711347 0.000275778237030878 0.0
1.8762996068114315 0.00020612954841946188 0.0
1.8967403912314664 0.00014558874583174398 0.0
1.9172104040376508 9.474086237193515e-05 0.0
1.9377096892443553 5.417166799548808e-05 0.0
1.9582382769266613 2.4467415471644584e-05 0.0
1.9787961857196303 6.214637797784659e-06 0.0

CELLS 100 300
2 0 2
2 2 3
2 3 4
2 4 5
2 5 6
2 6 7
2 7 8
2 8 9
2 9 10
2 10 11
2 11 12
2 12 13
2 13 14
2 14 15
2 15 16
2 16 17
2 17 18
2 18 19
2 19 20
2 20 21
2 21 22
2 22 23
2 23 24
2 24 25
2 25 26
2 26 27
2 27 28
2 28 29
2 29 30
2 30 31
2 31 32
2 32 33
2 33 34
2 34 35
2 35 36
2 36 37
2 37 38
2 38 39
2 39 40
2 40 41
2 41 42
2 42 43
2 43 44
2 44 45
2 45 46
2 46 47
2 47 48
2 48 49
2 49 50
2 50 51
2 51 52
2 52 53
2 53 54
2 54 55
2 55 56
2 56 57
2 57 58
2 58 59
2 59 60
2 60 61
2 61 62
2 62 63
2 63 64
2 64 65
2 65 66
2 66 67
2 67 68
2 68 69
2 69 70
2 70 71
2 71 72
2 72 73
2 73 74
2 74 75
2 75 76
2 76 77
2 77 78
2 78 79
2 79 80
2 80 81
2 81 82
2 82 83
2 83 84
2 84 85
2 85 86
2 86 87
2 87 88
2 88 89
2 89 90
2 90 91
2 91 92
2 92 93
2 93 94
2 94 95
2 95 96
2 96 97
2 97 98
2 98 99
2 99 100
2 100 1

CELL_TYPES 100
3
3
3
3
3
3
3
3
3
3
3
3
3
3
3
3
3
3
3
3
3
3
3
3
3
3
3
3
3
3
3
3
3
3
3
3
3
3
3
3
3
3
3
3
3
3
3
3
3
3
3
3
3
3
3
3
3
3
3
3
3
3
3
3
3
3
3
3
3
3
3
3
3
3
3
3
3
3
3
3
3
3
3
3
3
3
3
3
3
3
3
3
3
3
3
3
3
3
3
3

POINT_DATA 101
SCALARS MODE1_224.6674_Hz float 1
LOOKUP_TABLE default
0.009839986425673726
0.0
9.918014452078463e-05
0.009847731018820213
0.01923125756797109
0.028156174108291288
0.03662511581195344
0.04464086832166672
0.05220633260853886
0.05932455773784835
0.06599878065283044
0.07223246627141555
0.07802934662242618
0.08339345874820135
0.08832918136445082
0.09284127036458886
0.09693489330658514
0.1006156630592228
0.10388967082205085
0.10676351877379067
0.10924435264962298
0.11133989460088535
0.11305847675240305
0.1144090759440515
0.11540135022666352
0.11604567777848339
0.11635319901867203
0.11633586281913487
0.1160064778546191
0.11537877028068476
0.11446744908360029
0.11328828059331075
0.11185817376935578
0.11019527792462196
0.10831909448671911
0.10625060412339407
0.10401240994341089
0.10162889633141185
0.09912640100617437
0.09653339472872755
0.09388065825194737
0.09120143905313122
0.08853156063396189
0.08590944452592082
0.08337599020785583
0.0809742430539394
0.07874876974297221
0.07674466192433503
0.0750061125953192
0.07357456543914814
0.07248652832715803
0.07177125602346147
0.07144861109297575
0.07152745916654862
0.072004905593091
0.07286653094130174
0.07408757674419217
0.0756348444580956
0.07746896438320602
0.07954668951337497
0.08182294861189174
0.0842525068231606
0.08679118850547911
0.08939669236272023
0.09202906909452273
0.09465094384422962
0.0972275603450378
0.09972671012242354
0.1021185946218455
0.10437565403648802
0.10647238523386
0.10838516268797715
0.11009207034340475
0.1115727483279264
0.11280825586717572
0.11378095020178268
0.11447438043331067
0.11487319479053339
0.11496305964658883
0.11473058861955157
0.11416328018151457
0.11324946233889582
0.11197824310113592
0.11033946561003373
0.10832366694849219
0.10592203978109833
0.103126396098001
0.0999291324380022
0.0963231960575097
0.09230205159027571
0.08785964781016664
0.0829903841671253
0.07768907681659548
0.0719509239068135
0.06577146992904184
0.05914656897777699
0.052072346822797856
0.04454516179784075
0.03656156479196276
0.0281182596948488
0.019212071430569067

