# vtk DataFile Version 2.0
mesh vtk view
ASCII
DATASET UNSTRUCTURED_GRID
POINTS 101 double
0.0031930857278814192 0.0 0.0
2.0 0.0 0.0
0.0199999999999621 3.236621604239361e-05 0.0
0.04319308572777685 0.00012598214446902153 0.0
0.06612498279141402 0.00027562522208302297 0.0
0.08879584176181464 0.0004760780326333041 0.0
0.11120604452116697 0.0007221339654702897 0.0
0.1333563058523878 0.0010086048068366142 0.0
0.1552477651166032 0.0013303300658060017 0.0
0.1768820680463458 0.0016821878375936745 0.0
0.19826143869834065 0.0020591070080263393 0.0
0.21938874162892838 0.002456080604435477 0.0
0.24026753437708964 0.002868180100176597 0.0
0.26090211036438016 0.0032905704824232537 0.0
0.28129753234734256 0.003718525895872964 0.0
0.3014596565859588 0.004147445678563371 0.0
0.3213951479207929 0.004572870610149577 0.0
0.34111148598167296 0.0049904991977577536 0.0
0.36061696278149846 0.00539620382991132 0.0
0.37992067197963125 0.005786046635022501 0.0
0.39903249013016834 0.006156294887554576 0.0
0.41796305026086383 0.006503435812174052 0.0
0.43672370815822037 0.0068241906440112765 0.0
0.4553265017629325 0.007115527811508677 0.0
0.4737841041073642 0.007374675117231234 0.0
0.49210977025262603 0.00759913080140953 0.0
0.5103172787069375 0.007786673382843837 0.0
0.5284208678290677 0.007935370182076395 0.0
0.5464351677405179 0.008043584442390936 0.0
0.5643751282875785 0.008109980975174546 0.0
0.5822559436092648 0.008133530267422917 0.0
0.6000929738792741 0.008113511000630562 0.0
0.6179016647993871 0.00804951094192428 0.0
0.6356974654280302 0.007941426180009675 0.0
0.6534957449309626 0.007789458690246653 0.0
0.6713117088411682 0.0075941122248859745 0.0
0.6891603154119967 0.007356186536123158 0.0
0.707056192641368 0.007076769951093402 0.0
0.725013556535461 0.006757230329179471 0.0
0.7430461311677465 0.006399204442969983 0.0
0.7611670710735697 0.006004585834827943 0.0
0.7793888865017892 0.005575511211247684 0.0
0.7977233720233393 0.005114345446935668 0.0
0.8161815389720931 0.004623665279790407 0.0
0.834773552166208 0.004106241786627085 0.0
0.853508671328374 0.00356502173754293 0.0
0.8723951975912162 0.0030031079342040697 0.0
0.8914404254397079 0.0024237386440107435 0.0
0.9106506004060289 0.001830266248026681 0.0
0.9300308827940443 0.0012261352257059701 0.0
0.9495853176707323 0.000614859603786993 0.0
0.9693168113206599 2.2169226259883423e-13 0.0
0.989227114317175 -0.0006148596033466017 0.0
1.0093168113206519 -0.001226135225271719 0.0
1.0295853176706515 -0.0018302662476002653 0.0
1.0500308827938716 -0.002423738643593753 0.0
1.0706506004057699 -0.0030031079337980277 0.0
1.091440425439368 -0.003565021737149204 0.0
1.1123951975908 -0.004106241786246902 0.0
1.1335086713278881 -0.004623665279424856 0.0
1.1547735521656584 -0.005114345446585655 0.0
1.1761815389714876 -0.005575511210914018 0.0
1.1977233720226845 -0.006004585834511242 0.0
1.2193888865010913 -0.006399204442670702 0.0
1.241167071072837 -0.006757230328897938 0.0
1.2630461311669863 -0.007076769950829779 0.0
1.2850135565346799 -0.0073561865358774525 0.0
1.3070561926405724 -0.007594112224658049 0.0
1.3291603154111946 -0.00778945869003624 0.0
1.3513117088403654 -0.007941426179816378 0.0
1.3734957449301646 -0.008049510941747608 0.0
1.395697465427241 -0.008113511000469916 0.0
1.4179016647986122 -0.008133530267277624 0.0
1.4400929738785173 -0.008109980975043866 0.0
1.4622559436085283 -0.008043584442274085 0.0
1.4843751282868636 -0.00793537018197258 0.0
1.506435167739827 -0.007786673382752225 0.0
1.5284208678284028 -0.007599130801329258 0.0
1.5503172787062998 -0.007374675117161439 0.0
1.5721097702520153 -0.0071155278114484995 0.0
1.5937841041067815 -0.0068241906439598715 0.0
1.6153265017623772 -0.006503435812130601 0.0
1.6367237081576922 -0.006156294887518284 0.0
1.6579630502603613 -0.005786046634992628 0.0
1.6790324901296922 -0.005396203829887093 0.0
1.699920671979181 -0.004990499197738501 0.0
1.7206169627810715 -0.004572870610134645 0.0
1.7411114859812686 -0.004147445678552149 0.0
1.7613951479204137 -0.0037185258958648743 0.0
1.781459656585601 -0.003290570482418048 0.0
1.801297532347006 -0.0028681801001740385 0.0
1.8209021103640775 -0.002456080604435111 0.0
1.8402675343768369 -0.0020591070080276243 0.0
1.859388741628727 -0.0016821878375961226 0.0
1.8782614386981902 -0.0013303300658091526 0.0
1.896882068046244 -0.001008604806840001 0.0
1.9152477651165492 -0.0007221339654734647 0.0
1.9333563058523742 -0.0004760780326359925 0.0
1.951206044521185 -0.0002756252220850589 0.0
1.9687958417618596 -0.00012598214447030642 0.0
1.9861249827914877 -3.236621604283492e-05 0.0

CELLS 100 300
2 0 2
2 2 3
2 3 4
2 4 5
2 5 6
2 6 7
2 7 8
2 8 9
2 9 10
2 10 11
2 11 12
2 12 13
2 13 14
2 14 15
2 15 16
2 16 17
2 17 18
2 18 19
2 19 20
2 20 21
2 21 22
2 22 23
2 23 24
2 24 25
2 25 26
2 26 27
2 27 28
2 28 29
2 29 30
2 30 31
2 31 32
2 32 33
2 33 34
2 34 35
2 35 36
2 36 37
2 37 38
2 38 39
2 39 40
2 40 41
2 41 42
2 42 43
2 43 44
2 44 45
2 45 46
2 46 47
2 47 48
2 48 49
2 49 50
2 50 51
2 51 52
2 52 53
2 53 54
2 54 55
2 55 56
2 56 57
2 57 58
2 58 59
2 59 60
2 60 61
2 61 62
2 62 63
2 63 64
2 64 65
2 65 66
2 66 67
2 67 68
2 68 69
2 69 70
2 70 71
2 71 72
2 72 73
2 73 74
2 74 75
2 75 76
2 76 77
2 77 78
2 78 79
2 79 80
2 80 81
2 81 82
2 82 83
2 83 84
2 84 85
2 85 86
2 86 87
2 87 88
2 88 89
2 89 90
2 90 91
2 91 92
2 92 93
2 93 94
2 94 95
2 95 96
2 96 97
2 97 98
2 98 99
2 99 100
2 100 1

CELL_TYPES 100
3
3
3
3
3
3
3
3
3
3
3
3
3
3
3
3
3
3
3
3
3
3
3
3
3
3
3
3
3
3
3
3
3
3
3
3
3
3
3
3
3
3
3
3
3
3
3
3
3
3
3
3
3
3
3
3
3
3
3
3
3
3
3
3
3
3
3
3
3
3
3
3
3
3
3
3
3
3
3
3
3
3
3
3
3
3
3
3
3
3
3
3
3
3
3
3
3
3
3
3

POINT_DATA 101
SCALARS MODE2_619.3044_Hz float 1
LOOKUP_TABLE default
0.02667832639425423
0.0
0.00027042069938373756
0.026699083007919962
0.051226201980524154
0.07359708701882048
0.09382103666866715
0.11191006164382647
0.12787948854935227
0.14174868299595036
0.15354173192877954
0.16328807272750234
0.17102307352289706
0.17678857506283804
0.1806334097950444
0.1826139209232872
0.18279451462093835
0.18124829451165347
0.1780578524601111
0.17331632962095828
0.1671289269340401
0.1596151531053225
0.15091228306524565
0.14118081837980806
0.13061329096678734
0.11944868054755584
0.10799616053171027
0.09667354918822504
0.08606517552256139
0.07699038186628254
0.07052139906996478
0.0677930767341908
0.069501413157734
0.07546310527553234
0.0847864704938791
0.09641173806822753
0.10945160536274122
0.12325377272168135
0.13735162014845098
0.15140445605845224
0.16515386844506685
0.17839589591397076
0.19096401355270906
0.2027188105813003
0.21354169713990498
0.22333103645466829
0.23199975169910012
0.23947384093246493
0.24569145754367722
0.2506023455246499
0.25416749795121163
0.2563589555978672
0.25715969339290257
0.2565635628299336
0.2545752729356508
0.25121040379507276
0.24649545700115738
0.24046795850898092
0.23317664320751727
0.224681769745335
0.21505564287344375
0.2043834655890343
0.19276471631338998
0.18031536755705324
0.16717146778713352
0.15349495947738576
0.13948320450631146
0.1253846671393985
0.11152460413669278
0.09834571135528687
0.08646546035877668
0.07673032312149616
0.07018092003459671
0.06776358520223974
0.0697975269831806
0.07570959356788932
0.08439972464774075
0.09476895026186898
0.10595814165819112
0.11735092830459416
0.1285076113813822
0.13910468075092816
0.14889365925404818
0.15767548617693478
0.16528493749394357
0.17158112105142395
0.17644159358226474
0.17975864487127408
0.18143689083568149
0.18139166359648984
0.17954788762881996
0.17583924915808627
0.17020753655747473
0.16260207255394285
0.15297918586723497
0.1413016869830855
0.12753832390979083
0.11166320132919325
0.09365515225078395
0.07349705764895377
0.05117512820322159

