# vtk DataFile Version 2.0
mesh vtk view
ASCII
DATASET UNSTRUCTURED_GRID
POINTS 101 double
-0.006031384152664903 0.0 0.0
2.0 0.0 0.0
0.0199999999999621 -6.11361858578546e-05 0.0
0.033968615847314594 -0.00023796627288592953 0.0
0.04843058806033255 -0.0005206254194901545 0.0
0.0633856322272308 -0.00089925850608513 0.0
0.07883302701499217 -0.0013640308236661026 0.0
0.09477142227811841 -0.0019051424129136046 0.0
0.11119866589005259 -0.0025128456798557807 0.0
0.12811164924489427 -0.0031774659154547185 0.0
0.14550617134659338 -0.003889424348494196 0.0
0.16337682136650597 -0.0046392633639336794 0.0
0.18171687950877927 -0.005417673522555794 0.0
0.2005182359771367 -0.006215522022355035 0.0
0.2197713277869677 -0.007023882247760043 0.0
0.23946509311386308 -0.007834064059508589 0.0
0.2595869428145632 -0.00863764448583809 0.0
0.2801227486993989 -0.009426498484653533 0.0
0.3010568480773378 -0.010192829456499158 0.0
0.3223720640362513 -0.010929199199486947 0.0
0.3440497408628462 -0.01162855700982531 0.0
0.3660697939491415 -0.012284267645217653 0.0
0.38841077347618824 -0.01289013788313241 0.0
0.41104994111156357 -0.013440441421738612 0.0
0.4339633589052458 -0.013929941888103441 0.0
0.45712598951958294 -0.014353913735995778 0.0
0.48051180688349227 -0.014708160834260582 0.0
0.5040939163192998 -0.014989032566144301 0.0
0.5278446831530587 -0.015193437280071767 0.0
0.5517358687862203 -0.015318852953107476 0.0
0.5757387731784219 -0.01536333494957662 0.0
0.5998243826682353 -0.01532552077896884 0.0
0.6239635220411864 -0.015204631779190304 0.0
0.6481270097424698 -0.015000471673351607 0.0
0.6722858151256513 -0.0147134219704659 0.0
0.6964112166284278 -0.014344434202562395 0.0
0.7204749597722494 -0.013895019012677074 0.0
0.7444494138943795 -0.01336723212984309 0.0
0.7683077265387018 -0.012763657288450112 0.0
0.7920239744553275 -0.012087386170054412 0.0
0.8155733101886038 -0.011341995465786113 0.0
0.8389321032684649 -0.010531521176801182 0.0
0.8620780750609236 -0.009660430288656263 0.0
0.8849904263797757 -0.008733589972937435 0.0
0.9076499570129458 -0.007756234485851159 0.0
0.9300391763731302 -0.006733929948692202 0.0
0.9521424045431486 -0.005672537209052131 0.0
0.9739458630513841 -0.004578172994242516 0.0
0.9954377547814982 -0.003457169579605953 0.0
1.016608332492856 -0.002316033204111277 0.0
1.037449955503388 -0.0011614014738198755 0.0
1.0579571341645302 -4.1875205157557574e-13 0.0
1.0781265618378684 0.0011614014729880253 0.0
1.0979571341647876 0.0023160332032910245 0.0
1.11744995550383 0.003457169578800501 0.0
1.136608332493453 0.004578172993454866 0.0
1.155437754782243 0.0056725372082851635 0.0
1.173945863052267 0.006733929947948496 0.0
1.192142404544159 0.007756234485133036 0.0
1.2100391763742568 0.00873358997224695 0.0
1.2276499570141746 0.009660430287995125 0.0
1.244990426381095 0.010531521176170922 0.0
1.26207807506232 0.011341995465187901 0.0
1.278932103269924 0.012087386169489102 0.0
1.2955733101901132 0.012763657287918326 0.0
1.3120239744568734 0.013367232129345137 0.0
1.3283077265402716 0.013895019012212965 0.0
1.3444494138959582 0.01434443420213187 0.0
1.3604749597738253 0.014713421970068453 0.0
1.3764112166299884 0.01500047167298649 0.0
1.3922858151271882 0.01520463177885659 0.0
1.4081270097439718 0.015325520778665397 0.0
1.423963522042646 0.015363334949302176 0.0
1.4398243826696446 0.015318852952860635 0.0
1.455738773179777 0.01519343727985105 0.0
1.4717358687875164 0.014989032565948206 0.0
1.4878446831542942 0.014708160834087535 0.0
1.5040939163204705 0.014353913735844152 0.0
1.5205118068845964 0.013929941887971605 0.0
1.5371259895206173 0.013440441421624944 0.0
1.553963358906212 0.012890137883035313 0.0
1.5710499411124617 0.012284267645135578 0.0
1.5884107734770203 0.011628557009756759 0.0
1.6060697939499067 0.01092919919943052 0.0
1.624049740863546 0.010192829456453398 0.0
1.6423720640368862 0.009426498484617168 0.0
1.6610568480779133 0.008637644485809884 0.0
1.680122748699913 0.007834064059487392 0.0
1.6995869428150148 0.007023882247744763 0.0
1.7194650931142583 0.006215522022345201 0.0
1.7397713277873132 0.005417673522550961 0.0
1.7605182359774394 0.004639263363932987 0.0
1.7817168795090472 0.0038894243484966233 0.0
1.8033768213667414 0.0031774659154593424 0.0
1.8255061713467973 0.0025128456798617325 0.0
1.848111649245068 0.0019051424129200019 0.0
1.8711986658901998 0.0013640308236721 0.0
1.894771422278239 0.0008992585060902079 0.0
1.918833027015083 0.0005206254194940001 0.0
1.9433856322272922 0.00023796627288835657 0.0
1.9684305880603699 6.113618585868819e-05 0.0

CELLS 100 300
2 0 2
2 2 3
2 3 4
2 4 5
2 5 6
2 6 7
2 7 8
2 8 9
2 9 10
2 10 11
2 11 12
2 12 13
2 13 14
2 14 15
2 15 16
2 16 17
2 17 18
2 18 19
2 19 20
2 20 21
2 21 22
2 22 23
2 23 24
2 24 25
2 25 26
2 26 27
2 27 28
2 28 29
2 29 30
2 30 31
2 31 32
2 32 33
2 33 34
2 34 35
2 35 36
2 36 37
2 37 38
2 38 39
2 39 40
2 40 41
2 41 42
2 42 43
2 43 44
2 44 45
2 45 46
2 46 47
2 47 48
2 48 49
2 49 50
2 50 51
2 51 52
2 52 53
2 53 54
2 54 55
2 55 56
2 56 57
2 57 58
2 58 59
2 59 60
2 60 61
2 61 62
2 62 63
2 63 64
2 64 65
2 65 66
2 66 67
2 67 68
2 68 69
2 69 70
2 70 71
2 71 72
2 72 73
2 73 74
2 74 75
2 75 76
2 76 77
2 77 78
2 78 79
2 79 80
2 80 81
2 81 82
2 82 83
2 83 84
2 84 85
2 85 86
2 86 87
2 87 88
2 88 89
2 89 90
2 90 91
2 91 92
2 92 93
2 93 94
2 94 95
2 95 96
2 96 97
2 97 98
2 98 99
2 99 100
2 100 1

CELL_TYPES 100
3
3
3
3
3
3
3
3
3
3
3
3
3
3
3
3
3
3
3
3
3
3
3
3
3
3
3
3
3
3
3
3
3
3
3
3
3
3
3
3
3
3
3
3
3
3
3
3
3
3
3
3
3
3
3
3
3
3
3
3
3
3
3
3
3
3
3
3
3
3
3
3
3
3
3
3
3
3
3
3
3
3
3
3
3
3
3
3
3
3
3
3
3
3
3
3
3
3
3
3

POINT_DATA 101
SCALARS MODE2_619.3044_Hz float 1
LOOKUP_TABLE default
0.02667832639425423
0.0
0.00027042069938373756
0.026699083007919962
0.051226201980524154
0.07359708701882048
0.09382103666866715
0.11191006164382647
0.12787948854935227
0.14174868299595036
0.15354173192877954
0.16328807272750234
0.17102307352289706
0.17678857506283804
0.1806334097950444
0.1826139209232872
0.18279451462093835
0.18124829451165347
0.1780578524601111
0.17331632962095828
0.1671289269340401
0.1596151531053225
0.15091228306524565
0.14118081837980806
0.13061329096678734
0.11944868054755584
0.10799616053171027
0.09667354918822504
0.08606517552256139
0.07699038186628254
0.07052139906996478
0.0677930767341908
0.069501413157734
0.07546310527553234
0.0847864704938791
0.09641173806822753
0.10945160536274122
0.12325377272168135
0.13735162014845098
0.15140445605845224
0.16515386844506685
0.17839589591397076
0.19096401355270906
0.2027188105813003
0.21354169713990498
0.22333103645466829
0.23199975169910012
0.23947384093246493
0.24569145754367722
0.2506023455246499
0.25416749795121163
0.2563589555978672
0.25715969339290257
0.2565635628299336
0.2545752729356508
0.25121040379507276
0.24649545700115738
0.24046795850898092
0.23317664320751727
0.224681769745335
0.21505564287344375
0.2043834655890343
0.19276471631338998
0.18031536755705324
0.16717146778713352
0.15349495947738576
0.13948320450631146
0.1253846671393985
0.11152460413669278
0.09834571135528687
0.08646546035877668
0.07673032312149616
0.07018092003459671
0.06776358520223974
0.0697975269831806
0.07570959356788932
0.08439972464774075
0.09476895026186898
0.10595814165819112
0.11735092830459416
0.1285076113813822
0.13910468075092816
0.14889365925404818
0.15767548617693478
0.16528493749394357
0.17158112105142395
0.17644159358226474
0.17975864487127408
0.18143689083568149
0.18139166359648984
0.17954788762881996
0.17583924915808627
0.17020753655747473
0.16260207255394285
0.15297918586723497
0.1413016869830855
0.12753832390979083
0.11166320132919325
0.09365515225078395
0.07349705764895377
0.05117512820322159

