# vtk DataFile Version 2.0
mesh vtk view
ASCII
DATASET UNSTRUCTURED_GRID
POINTS 101 double
0.006031384152664905 0.0 0.0
2.0 0.0 0.0
0.0199999999999621 6.113618585785462e-05 0.0
0.04603138415253447 0.0002379662728859296 0.0
0.0715694119394391 0.0005206254194901547 0.0
0.09661436777245581 0.0008992585060851303 0.0
0.12116697298460538 0.0013640308236661032 0.0
0.14522857772139378 0.0019051424129136053 0.0
0.16880133410938802 0.0025128456798557816 0.0
0.19188835075448474 0.0031774659154547194 0.0
0.21449382865272443 0.0038894243484941973 0.0
0.23662317863275067 0.004639263363933681 0.0
0.25828312049041596 0.005417673522555797 0.0
0.27948176402199354 0.0062155220223550365 0.0
0.30022867221207333 0.0070238822477600455 0.0
0.3205349068850652 0.007834064059508592 0.0
0.3404130571842482 0.008637644485838094 0.0
0.3598772512992957 0.009426498484653536 0.0
0.37894315192124023 0.010192829456499162 0.0
0.3976279359622097 0.01092919919948695 0.0
0.41595025913549827 0.011628557009825314 0.0
0.43393020604908605 0.012284267645217657 0.0
0.45158922652192257 0.012890137883132416 0.0
0.4689500588864306 0.013440441421738617 0.0
0.48603664109263145 0.013929941888103446 0.0
0.5028740104781777 0.014353913735995783 0.0
0.5194881931141515 0.014708160834260587 0.0
0.5359060836782271 0.014989032566144306 0.0
0.5521553168443515 0.015193437280071772 0.0
0.5682641312110733 0.015318852953107481 0.0
0.5842612268187549 0.015363334949576627 0.0
0.6001756173288245 0.015325520778968845 0.0
0.6160364779557567 0.01520463177919031 0.0
0.6318729902543565 0.015000471673351612 0.0
0.6477141848710585 0.014713421970465906 0.0
0.6635887833681653 0.0143444342025624 0.0
0.6795250402242267 0.01389501901267708 0.0
0.6955505861019798 0.013367232129843096 0.0
0.7116922734575407 0.012763657288450116 0.0
0.7279760255407985 0.012087386170054415 0.0
0.7444266898074055 0.011341995465786117 0.0
0.7610678967274274 0.010531521176801185 0.0
0.7779219249348519 0.009660430288656267 0.0
0.7950095736158831 0.008733589972937439 0.0
0.8123500429825964 0.007756234485851162 0.0
0.8299608236222953 0.006733929948692203 0.0
0.8478575954521601 0.005672537209052133 0.0
0.8660541369438076 0.0045781729942425175 0.0
0.8845622452135767 0.0034571695796059543 0.0
0.9033916675021023 0.0023160332041112777 0.0
0.9225500444914536 0.001161401473819876 0.0
0.9420428658302383 4.187520515755759e-13 0.0
0.9618734381569616 -0.0011614014729880258 0.0
0.9820428658301485 -0.0023160332032910254 0.0
1.0025500444912119 -0.0034571695788005023 0.0
1.0233916675016927 -0.004578172993454868 0.0
1.044562245213009 -0.005672537208285165 0.0
1.0660541369430911 -0.006733929947948499 0.0
1.0878575954513048 -0.007756234485133039 0.0
1.1099608236213132 -0.008733589972246953 0.0
1.1323500429814994 -0.009660430287995129 0.0
1.1550095736146853 -0.010531521176170925 0.0
1.177921924933566 -0.011341995465187904 0.0
1.201067896726066 -0.012087386169489107 0.0
1.2244266898059828 -0.012763657287918331 0.0
1.2479760255393288 -0.013367232129345142 0.0
1.2716922734560363 -0.01389501901221297 0.0
1.2955505861004537 -0.014344434202131875 0.0
1.3195250402226928 -0.014713421970068459 0.0
1.3435887833666353 -0.015000471672986496 0.0
1.3677141848695418 -0.015204631778856597 0.0
1.3918729902528622 -0.015325520778665402 0.0
1.416036477954294 -0.015363334949302183 0.0
1.4401756173274012 -0.015318852952860642 0.0
1.464261226817375 -0.015193437279851056 0.0
1.4882641312097395 -0.014989032565948211 0.0
1.512155316843068 -0.01470816083408754 0.0
1.5359060836769973 -0.014353913735844158 0.0
1.5594881931129776 -0.01392994188797161 0.0
1.5828740104770607 -0.013440441421624948 0.0
1.606036641091572 -0.012890137883035318 0.0
1.6289500588854282 -0.012284267645135582 0.0
1.6515892265209757 -0.011628557009756764 0.0
1.6739302060481933 -0.010929199199430523 0.0
1.6959502591346602 -0.010192829456453402 0.0
1.717627935961426 -0.009426498484617171 0.0
1.7389431519205047 -0.008637644485809887 0.0
1.759877251298609 -0.007834064059487394 0.0
1.7804130571836134 -0.007023882247744765 0.0
1.8005349068844756 -0.006215522022345203 0.0
1.8202286722115268 -0.005417673522550963 0.0
1.8394817640215047 -0.004639263363932989 0.0
1.858283120490003 -0.003889424348496625 0.0
1.8766231786324148 -0.0031774659154593437 0.0
1.8944938286524649 -0.0025128456798617334 0.0
1.911888350754298 -0.0019051424129200027 0.0
1.928801334109272 -0.0013640308236721004 0.0
1.945228577721339 -0.0008992585060902083 0.0
1.961166972984601 -0.0005206254194940003 0.0
1.9766143677724959 -0.00023796627288835665 0.0
1.991569411939524 -6.11361858586882e-05 0.0

CELLS 100 300
2 0 2
2 2 3
2 3 4
2 4 5
2 5 6
2 6 7
2 7 8
2 8 9
2 9 10
2 10 11
2 11 12
2 12 13
2 13 14
2 14 15
2 15 16
2 16 17
2 17 18
2 18 19
2 19 20
2 20 21
2 21 22
2 22 23
2 23 24
2 24 25
2 25 26
2 26 27
2 27 28
2 28 29
2 29 30
2 30 31
2 31 32
2 32 33
2 33 34
2 34 35
2 35 36
2 36 37
2 37 38
2 38 39
2 39 40
2 40 41
2 41 42
2 42 43
2 43 44
2 44 45
2 45 46
2 46 47
2 47 48
2 48 49
2 49 50
2 50 51
2 51 52
2 52 53
2 53 54
2 54 55
2 55 56
2 56 57
2 57 58
2 58 59
2 59 60
2 60 61
2 61 62
2 62 63
2 63 64
2 64 65
2 65 66
2 66 67
2 67 68
2 68 69
2 69 70
2 70 71
2 71 72
2 72 73
2 73 74
2 74 75
2 75 76
2 76 77
2 77 78
2 78 79
2 79 80
2 80 81
2 81 82
2 82 83
2 83 84
2 84 85
2 85 86
2 86 87
2 87 88
2 88 89
2 89 90
2 90 91
2 91 92
2 92 93
2 93 94
2 94 95
2 95 96
2 96 97
2 97 98
2 98 99
2 99 100
2 100 1

CELL_TYPES 100
3
3
3
3
3
3
3
3
3
3
3
3
3
3
3
3
3
3
3
3
3
3
3
3
3
3
3
3
3
3
3
3
3
3
3
3
3
3
3
3
3
3
3
3
3
3
3
3
3
3
3
3
3
3
3
3
3
3
3
3
3
3
3
3
3
3
3
3
3
3
3
3
3
3
3
3
3
3
3
3
3
3
3
3
3
3
3
3
3
3
3
3
3
3
3
3
3
3
3
3

POINT_DATA 101
SCALARS MODE2_619.3044_Hz float 1
LOOKUP_TABLE default
0.02667832639425423
0.0
0.00027042069938373756
0.026699083007919962
0.051226201980524154
0.07359708701882048
0.09382103666866715
0.11191006164382647
0.12787948854935227
0.14174868299595036
0.15354173192877954
0.16328807272750234
0.17102307352289706
0.17678857506283804
0.1806334097950444
0.1826139209232872
0.18279451462093835
0.18124829451165347
0.1780578524601111
0.17331632962095828
0.1671289269340401
0.1596151531053225
0.15091228306524565
0.14118081837980806
0.13061329096678734
0.11944868054755584
0.10799616053171027
0.09667354918822504
0.08606517552256139
0.07699038186628254
0.07052139906996478
0.0677930767341908
0.069501413157734
0.07546310527553234
0.0847864704938791
0.09641173806822753
0.10945160536274122
0.12325377272168135
0.13735162014845098
0.15140445605845224
0.16515386844506685
0.17839589591397076
0.19096401355270906
0.2027188105813003
0.21354169713990498
0.22333103645466829
0.23199975169910012
0.23947384093246493
0.24569145754367722
0.2506023455246499
0.25416749795121163
0.2563589555978672
0.25715969339290257
0.2565635628299336
0.2545752729356508
0.25121040379507276
0.24649545700115738
0.24046795850898092
0.23317664320751727
0.224681769745335
0.21505564287344375
0.2043834655890343
0.19276471631338998
0.18031536755705324
0.16717146778713352
0.15349495947738576
0.13948320450631146
0.1253846671393985
0.11152460413669278
0.09834571135528687
0.08646546035877668
0.07673032312149616
0.07018092003459671
0.06776358520223974
0.0697975269831806
0.07570959356788932
0.08439972464774075
0.09476895026186898
0.10595814165819112
0.11735092830459416
0.1285076113813822
0.13910468075092816
0.14889365925404818
0.15767548617693478
0.16528493749394357
0.17158112105142395
0.17644159358226474
0.17975864487127408
0.18143689083568149
0.18139166359648984
0.17954788762881996
0.17583924915808627
0.17020753655747473
0.16260207255394285
0.15297918586723497
0.1413016869830855
0.12753832390979083
0.11166320132919325
0.09365515225078395
0.07349705764895377
0.05117512820322159

