# vtk DataFile Version 2.0
mesh vtk view
ASCII
DATASET UNSTRUCTURED_GRID
POINTS 101 double
0.0002802611526210917 0.0 0.0
2.0 0.0 0.0
0.0199999999999621 -2.8248353623738242e-06 0.0
0.03971973884732746 -1.1121552486152631e-05 0.0
0.05945281169069327 -2.462348545045933e-05 0.0
0.07919921678479652 -4.3064028347420324e-05 0.0
0.09895894965647001 -6.617670264559371e-05 0.0
0.11873200183523593 -9.369524927435512e-05 0.0
0.13851835965060733 -0.0001253537440954692 0.0
0.1583180030960499 -0.00016088673542913077 0.0
0.1781309047595536 -0.00020002940230350331 0.0
0.1979570288207047 -0.00024251773209912623 0.0
0.21779633011410474 -0.0002880887162627099 0.0
0.23764875325897067 -0.00033648056276894766 0.0
0.25751423185468275 -0.000387432924013983 0.0
0.27739268774203085 -0.00044068713883037975 0.0
0.2972840303297825 -0.0004959864873204558 0.0
0.3171881559861851 -0.0005530764572134304 0.0
0.3371049474949854 -0.0006117050204616786 0.0
0.35703427357541984 -0.0006716229188022634 0.0
0.3769759884655951 -0.0007325839570224065 0.0
0.3969299315685977 -0.0007943453026814493 0.0
0.41689592716060603 -0.000856667791057224 0.0
0.4368737841601991 -0.0009193162341015213 0.0
0.4568632959579834 -0.000982059732207757 0.0
0.47686424030558144 -0.0010446719876138276 0.0
0.49687637926294476 -0.001106931618284614 0.0
0.5168994592028839 -0.0011686224711416398 0.0
0.5369332108716194 -0.0012295339335319686 0.0
0.5569773495040868 -0.001289461241854643 0.0
0.5770315749926477 -0.001348205786290641 0.0
0.5970955721077822 -0.0014055754106116517 0.0
0.6171690107692588 -0.0014613847060737453 0.0
0.6372515463662053 -0.0015154552984343163 0.0
0.6573428201244287 -0.0015676161271644597 0.0
0.6774424595192593 -0.0016177037159641231 0.0
0.6975500787321234 -0.0016655624337239998 0.0
0.7176652791489809 -0.0017110447451160796 0.0
0.7377876498986946 -0.0017540114500340194 0.0
0.7579167684293397 -0.0017943319111450554 0.0
0.7780522011203947 -0.0018318842688568244 0.0
0.7981935039287013 -0.0018665556430453652 0.0
0.8183402230660201 -0.0018982423209344963 0.0
0.8384918957059634 -0.0019268499305616694 0.0
0.8586480507180322 -0.001952293599311314 0.0
0.8788082094264408 -0.001974498097043391 0.0
0.898971886391374 -0.0019933979633924557 0.0
0.9191385902102783 -0.0020089376188607423 0.0
0.9393078243367601 -0.002021071459377704 0.0
0.9594790879146302 -0.0020297639340478737 0.0
0.979651876624611 -0.002034989605858821 0.0
0.9998256835412211 -0.002036733195171335 0.0
1.0199999999972733 -0.002034989605864469 0.0
1.0401743164533495 -0.0020297639340590944 0.0
1.0603481233700527 -0.002021071459394389 0.0
1.080520912080149 -0.002008937618882747 0.0
1.1006921756581378 -0.001993397963419598 0.0
1.12086140978474 -0.001974498097075459 0.0
1.141028113603766 -0.0019522935993480626 0.0
1.1611917905688227 -0.0019268499306028268 0.0
1.1813519492773552 -0.0018982423209797665 0.0
1.2015081042895501 -0.001866555643094423 0.0
1.2216597769296205 -0.0018318842689093297 0.0
1.2418064960670663 -0.0017943319112006526 0.0
1.2619477988755017 -0.001754011450092332 0.0
1.2820832315666864 -0.0017110447451767269 0.0
1.3022123500974612 -0.0016655624337865926 0.0
1.3223347208473044 -0.0016177037160282654 0.0
1.3424499212642926 -0.0015676161272297473 0.0
1.3625575404772876 -0.001515455298500352 0.0
1.382657179872249 -0.0014613847061401386 0.0
1.4027484536306014 -0.0014055754106780205 0.0
1.4228309892276778 -0.001348205786356608 0.0
1.4429044278892837 -0.0012894612419198505 0.0
1.4629684250045467 -0.0012295339335960755 0.0
1.4830226504932342 -0.0011686224712043319 0.0
1.5030667891258283 -0.0011069316183455915 0.0
1.5231005407946892 -0.0010446719876728132 0.0
1.5431236207347527 -0.0009820597322644994 0.0
1.5631357596922384 -0.0009193162341557975 0.0
1.5831367040399584 -0.0008566677911088304 0.0
1.6031262158378634 -0.0007943453027302163 0.0
1.6231040728375759 -0.0007325839570681906 0.0
1.6430700684297013 -0.0006716229188449531 0.0
1.6630240115328208 -0.0006117050205011824 0.0
1.682965726423111 -0.0005530764572496943 0.0
1.7028950525036595 -0.0004959864873534545 0.0
1.722811844012571 -0.00044068713886011654 0.0
1.742715969669085 -0.0003874329240404877 0.0
1.7626073122569463 -0.0003364805627923083 0.0
1.782485768144401 -0.00028808871628303585 0.0
1.8023512467402059 -0.00024251773211652345 0.0
1.8222036698851525 -0.00020002940231809505 0.0
1.8420429711786297 -0.00016088673544107247 0.0
1.8618690952398567 -0.00012535374410494468 0.0
1.8816819969034337 -9.369524928157369e-05 0.0
1.9014816403489492 -6.61767026507928e-05 0.0
1.9212679981643972 -4.3064028350879654e-05 0.0
1.9410410503432451 -2.4623485452494607e-05 0.0
1.9608007832149998 -1.1121552487111186e-05 0.0
1.9805471883091816 -2.824835362629393e-06 0.0

CELLS 100 300
2 0 2
2 2 3
2 3 4
2 4 5
2 5 6
2 6 7
2 7 8
2 8 9
2 9 10
2 10 11
2 11 12
2 12 13
2 13 14
2 14 15
2 15 16
2 16 17
2 17 18
2 18 19
2 19 20
2 20 21
2 21 22
2 22 23
2 23 24
2 24 25
2 25 26
2 26 27
2 27 28
2 28 29
2 29 30
2 30 31
2 31 32
2 32 33
2 33 34
2 34 35
2 35 36
2 36 37
2 37 38
2 38 39
2 39 40
2 40 41
2 41 42
2 42 43
2 43 44
2 44 45
2 45 46
2 46 47
2 47 48
2 48 49
2 49 50
2 50 51
2 51 52
2 52 53
2 53 54
2 54 55
2 55 56
2 56 57
2 57 58
2 58 59
2 59 60
2 60 61
2 61 62
2 62 63
2 63 64
2 64 65
2 65 66
2 66 67
2 67 68
2 68 69
2 69 70
2 70 71
2 71 72
2 72 73
2 73 74
2 74 75
2 75 76
2 76 77
2 77 78
2 78 79
2 79 80
2 80 81
2 81 82
2 82 83
2 83 84
2 84 85
2 85 86
2 86 87
2 87 88
2 88 89
2 89 90
2 90 91
2 91 92
2 92 93
2 93 94
2 94 95
2 95 96
2 96 97
2 97 98
2 98 99
2 99 100
2 100 1

CELL_TYPES 100
3
3
3
3
3
3
3
3
3
3
3
3
3
3
3
3
3
3
3
3
3
3
3
3
3
3
3
3
3
3
3
3
3
3
3
3
3
3
3
3
3
3
3
3
3
3
3
3
3
3
3
3
3
3
3
3
3
3
3
3
3
3
3
3
3
3
3
3
3
3
3
3
3
3
3
3
3
3
3
3
3
3
3
3
3
3
3
3
3
3
3
3
3
3
3
3
3
3
3
3

POINT_DATA 101
SCALARS MODE1_224.6674_Hz float 1
LOOKUP_TABLE default
0.009839986425673726
0.0
9.918014452078463e-05
0.009847731018820213
0.01923125756797109
0.028156174108291288
0.03662511581195344
0.04464086832166672
0.05220633260853886
0.05932455773784835
0.06599878065283044
0.07223246627141555
0.07802934662242618
0.08339345874820135
0.08832918136445082
0.09284127036458886
0.09693489330658514
0.1006156630592228
0.10388967082205085
0.10676351877379067
0.10924435264962298
0.11133989460088535
0.11305847675240305
0.1144090759440515
0.11540135022666352
0.11604567777848339
0.11635319901867203
0.11633586281913487
0.1160064778546191
0.11537877028068476
0.11446744908360029
0.11328828059331075
0.11185817376935578
0.11019527792462196
0.10831909448671911
0.10625060412339407
0.10401240994341089
0.10162889633141185
0.09912640100617437
0.09653339472872755
0.09388065825194737
0.09120143905313122
0.08853156063396189
0.08590944452592082
0.08337599020785583
0.0809742430539394
0.07874876974297221
0.07674466192433503
0.0750061125953192
0.07357456543914814
0.07248652832715803
0.07177125602346147
0.07144861109297575
0.07152745916654862
0.072004905593091
0.07286653094130174
0.07408757674419217
0.0756348444580956
0.07746896438320602
0.07954668951337497
0.08182294861189174
0.0842525068231606
0.08679118850547911
0.08939669236272023
0.09202906909452273
0.09465094384422962
0.0972275603450378
0.09972671012242354
0.1021185946218455
0.10437565403648802
0.10647238523386
0.10838516268797715
0.11009207034340475
0.1115727483279264
0.11280825586717572
0.11378095020178268
0.11447438043331067
0.11487319479053339
0.11496305964658883
0.11473058861955157
0.11416328018151457
0.11324946233889582
0.11197824310113592
0.11033946561003373
0.10832366694849219
0.10592203978109833
0.103126396098001
0.0999291324380022
0.0963231960575097
0.09230205159027571
0.08785964781016664
0.0829903841671253
0.07768907681659548
0.0719509239068135
0.06577146992904184
0.05914656897777699
0.052072346822797856
0.04454516179784075
0.03656156479196276
0.0281182596948488
0.019212071430569067

