# vtk DataFile Version 2.0
mesh vtk view
ASCII
DATASET UNSTRUCTURED_GRID
POINTS 101 double
0.0 0.0 0.0
1.0 -0.3274874932940198 0.0
0.009999999999981052 -0.0009838229408488225 0.0
0.01999999999996226 -0.003829576146702468 0.0
0.02999999999994291 -0.008378732321951413 0.0
0.03999999999992165 -0.014472920752368683 0.0
0.04999999999989939 -0.021954099466095757 0.0
0.05999999999987805 -0.03066478620907747 0.0
0.06999999999986013 -0.04044834222046782 0.0
0.07999999999984476 -0.05114930281517291 0.0
0.08999999999982944 -0.06261374881311119 0.0
0.09999999999981413 -0.07468971289970862 0.0
0.1099999999997988 -0.08722761506121177 0.0
0.1199999999997825 -0.10008072131284416 0.0
0.1299999999997603 -0.11310562002889768 0.0
0.1399999999997321 -0.1261627102923186 0.0
0.1499999999997028 -0.1391166968078105 0.0
0.1599999999996737 -0.15183708606764743 0.0
0.1699999999996445 -0.16419867862324716 0.0
0.1799999999996153 -0.17608205249836115 0.0
0.1899999999995861 -0.18737403298117994 0.0
0.1999999999995569 -0.1979681442524027 0.0
0.2099999999995277 -0.20776503854413794 0.0
0.2199999999994985 -0.2166728987793351 0.0
0.2299999999994693 -0.22460781091258614 0.0
0.2399999999994402 -0.23149410247962193 0.0
0.2499999999994109 -0.23726464416326035 0.0
0.2599999999993817 -0.24186111149736042 0.0
0.2699999999993525 -0.24523420415516262 0.0
0.2799999999993234 -0.24734382060314772 0.0
0.2899999999992942 -0.24815918624494362 0.0
0.299999999999265 -0.24765893352961407 0.0
0.3099999999992358 -0.2458311328533195 0.0
0.3199999999992066 -0.242673273441274 0.0
0.3299999999991775 -0.2381921937558056 0.0
0.3399999999991483 -0.23240396133433922 0.0
0.349999999999119 -0.22533370231699126 0.0
0.3599999999990898 -0.21701538127427028 0.0
0.3699999999990606 -0.20749153228985157 0.0
0.3799999999990315 -0.19681294258968102 0.0
0.3899999999990023 -0.1850382903345081 0.0
0.3999999999989731 -0.1722337385067394 0.0
0.4099999999989439 -0.15847248712258907 0.0
0.4199999999989147 -0.14383428628532585 0.0
0.4299999999988856 -0.128404912862861 0.0
0.4399999999988564 -0.1122756138221077 0.0
0.4499999999988272 -0.09554251948167161 0.0
0.4599999999987979 -0.07830603015243429 0.0
0.4699999999987687 -0.06067017982162204 0.0
0.4799999999987396 -0.04274198069795327 0.0
0.4899999999987104 -0.024630752573761634 0.0
0.4999999999986921 -0.006447441073350107 0.0
0.5099999999987076 0.011696071055380036 0.0
0.5199999999987339 0.029687655387121672 0.0
0.5299999999987604 0.0474156277490525 0.0
0.5399999999987867 0.06476943237022731 0.0
0.549999999998813 0.08164031600362254 0.0
0.5599999999988394 0.09792198781671366 0.0
0.5699999999988659 0.11351126091509191 0.0
0.5799999999988923 0.12830867145717767 0.0
0.5899999999989186 0.14221907143605367 0.0
0.5999999999989449 0.15515219134606834 0.0
0.6099999999989714 0.16702316911594622 0.0
0.6199999999989977 0.1777530418755631 0.0
0.6299999999990241 0.18726919732922848 0.0
0.6399999999990504 0.19550578173255528 0.0
0.6499999999990768 0.2024040617114952 0.0
0.6599999999991032 0.2079127374191032 0.0
0.6699999999991295 0.21198820479631578 0.0
0.679999999999156 0.21459476498560057 0.0
0.6899999999991824 0.21570477923897138 0.0
0.6999999999992087 0.21529876796254957 0.0
0.7099999999992351 0.21336545284619673 0.0
0.7199999999992615 0.2099017413369643 0.0
0.7299999999992879 0.20491265302694595 0.0
0.7399999999993142 0.1984111878373548 0.0
0.7499999999993405 0.19041813618904474 0.0
0.759999999999367 0.1809618316531338 0.0
0.7699999999993933 0.17007784687158586 0.0
0.7799999999994197 0.15780863382429078 0.0
0.789999999999446 0.1442031097944993 0.0
0.7999999999994724 0.1293161906459427 0.0
0.8099999999994988 0.11320827327066672 0.0
0.8199999999995252 0.09594466929476904 0.0
0.8299999999995517 0.07759499233746053 0.0
0.839999999999578 0.058232501305669 0.0
0.8499999999996044 0.03793340236991543 0.0
0.8599999999996307 0.016776112405648493 0.0
0.869999999999657 -0.005159513203827061 0.0
0.8799999999996835 -0.027792985422712354 0.0
0.8899999999997098 -0.05104401604176762 0.0
0.8999999999997362 -0.0748333787224958 0.0
0.9099999999997626 -0.09908379355568736 0.0
0.9199999999997889 -0.1237208321241858 0.0
0.9299999999998153 -0.14867384013391813 0.0
0.9399999999998417 -0.17387687478586955 0.0
0.9499999999998682 -0.1992696542054672 0.0
0.9599999999998945 -0.224798516425259 0.0
0.9699999999999208 -0.2504173856323139 0.0
0.9799999999999472 -0.2760887436438066 0.0
0.9899999999999736 -0.3017846048630499 0.0

CELLS 100 300
2 0 2
2 2 3
2 3 4
2 4 5
2 5 6
2 6 7
2 7 8
2 8 9
2 9 10
2 10 11
2 11 12
2 12 13
2 13 14
2 14 15
2 15 16
2 16 17
2 17 18
2 18 19
2 19 20
2 20 21
2 21 22
2 22 23
2 23 24
2 24 25
2 25 26
2 26 27
2 27 28
2 28 29
2 29 30
2 30 31
2 31 32
2 32 33
2 33 34
2 34 35
2 35 36
2 36 37
2 37 38
2 38 39
2 39 40
2 40 41
2 41 42
2 42 43
2 43 44
2 44 45
2 45 46
2 46 47
2 47 48
2 48 49
2 49 50
2 50 51
2 51 52
2 52 53
2 53 54
2 54 55
2 55 56
2 56 57
2 57 58
2 58 59
2 59 60
2 60 61
2 61 62
2 62 63
2 63 64
2 64 65
2 65 66
2 66 67
2 67 68
2 68 69
2 69 70
2 70 71
2 71 72
2 72 73
2 73 74
2 74 75
2 75 76
2 76 77
2 77 78
2 78 79
2 79 80
2 80 81
2 81 82
2 82 83
2 83 84
2 84 85
2 85 86
2 86 87
2 87 88
2 88 89
2 89 90
2 90 91
2 91 92
2 92 93
2 93 94
2 94 95
2 95 96
2 96 97
2 97 98
2 98 99
2 99 100
2 100 1

CELL_TYPES 100
3
3
3
3
3
3
3
3
3
3
3
3
3
3
3
3
3
3
3
3
3
3
3
3
3
3
3
3
3
3
3
3
3
3
3
3
3
3
3
3
3
3
3
3
3
3
3
3
3
3
3
3
3
3
3
3
3
3
3
3
3
3
3
3
3
3
3
3
3
3
3
3
3
3
3
3
3
3
3
3
3
3
3
3
3
3
3
3
3
3
3
3
3
3
3
3
3
3
3
3

POINT_DATA 101
SCALARS MODE3_1.2391_Hz float 1
LOOKUP_TABLE default
0.0
0.25471249478423763
0.0007651956206601953
0.0029785592252130305
0.00651679180596221
0.011256716140731197
0.017075410695852253
0.02385038927372692
0.031459821727030525
0.039782791078467813
0.04869958241019759
0.05809199892199559
0.0678437006031647
0.07784056102110101
0.08797103780025374
0.09812655244958113
0.10820187529496371
0.118095511385948
0.12771008337363668
0.13695270749872532
0.14573535898536216
0.1539752233074243
0.16159502997877395
0.16852336571726062
0.17469496404312254
0.18005096859526148
0.1845391676825358
0.1881141978312803
0.19073771434290424
0.19237852713578155
0.1930127004127339
0.1926236149674776
0.1912019922192485
0.1887458793432131
0.18526059514340434
0.18075863659337493
0.17525954624654874
0.16878974099109909
0.16138230289210675
0.15307673312530745
0.14391867026017297
0.13395957439413064
0.12325637887312484
0.11187111155525344
0.09987048778222521
0.08732547741719487
0.07431084848574458
0.06090469011855999
0.04718791763903936
0.033243762765074764
0.019157252001814604
0.005014676390383417
-0.009096944154184472
-0.023090398634427967
-0.03687882158259639
-0.05037622517684346
-0.06349802355837308
-0.07616154607966617
-0.0882865362672937
-0.09979563335558263
-0.11061483333915285
-0.12067392660249758
-0.12990690931240262
-0.13825236590321574
-0.14565382014495548
-0.1520600524586541
-0.1574253813311629
-0.1617099068815247
-0.16487971484157893
-0.16690703943324486
-0.1677703838525333
-0.1674545973042052
-0.1659509077692641
-0.16325690992875
-0.15937650790984684
-0.15431981276238707
-0.14810299481370146
-0.1407480912857707
-0.1322827697890112
-0.12274004853000392
-0.11215797428461056
-0.10057925939128877
-0.08805087921051856
-0.07462363167370925
-0.060351660706913744
-0.045291945459964775
-0.02950375739882311
-0.013048087426615495
0.004012954714087714
0.021616766439887386
0.03970090136581926
0.05820373900638562
0.07706517276553461
0.09622731387436673
0.11563520899304743
0.13523756927789854
0.15498750882647447
0.1748432905529792
0.1947690777140219
0.21473568950073843
0.2347213593379277

