# vtk DataFile Version 2.0
mesh vtk view
ASCII
DATASET UNSTRUCTURED_GRID
POINTS 101 double
0.0 0.0 0.0
1.0 0.4366502098605539 0.0
0.009999999999981052 0.004157818266135633 0.0
0.01999999999996226 0.015809064361105376 0.0
0.02999999999994291 0.03372244550407592 0.0
0.03999999999992165 0.05667340054628299 0.0
0.04999999999989939 0.08345117373510813 0.0
0.05999999999987805 0.1128679015961494 0.0
0.06999999999986013 0.14376922991625235 0.0
0.07999999999984476 0.17504598705634258 0.0
0.08999999999982944 0.20564645327825587 0.0
0.09999999999981413 0.23458878385682494 0.0
0.1099999999997988 0.2609731667075006 0.0
0.1199999999997825 0.28399332315251347 0.0
0.1299999999997603 0.3029469931719754 0.0
0.1399999999997321 0.31724508377981353 0.0
0.1499999999997028 0.32641920062391083 0.0
0.1599999999996737 0.3301273280057273 0.0
0.1699999999996445 0.3281574706030824 0.0
0.1799999999996153 0.3204291205243388 0.0
0.1899999999995861 0.30699246511258566 0.0
0.1999999999995569 0.28802530328928816 0.0
0.2099999999995277 0.26382769027894876 0.0
0.2199999999994985 0.23481438137767005 0.0
0.2299999999994693 0.20150519411612053 0.0
0.2399999999994402 0.16451345384467153 0.0
0.2499999999994109 0.12453272960596068 0.0
0.2599999999993817 0.08232210439743295 0.0
0.2699999999993525 0.03869025588166495 0.0
0.2799999999993234 -0.005521350309278814 0.0
0.2899999999992942 -0.04945583277747151 0.0
0.299999999999265 -0.09225849711362617 0.0
0.3099999999992358 -0.13309432810354088 0.0
0.3199999999992066 -0.1711650311532621 0.0
0.3299999999991775 -0.20572529053085023 0.0
0.3399999999991483 -0.2360979266376307 0.0
0.349999999999119 -0.2616876556102553 0.0
0.3599999999990898 -0.2819931816789022 0.0
0.3699999999990606 -0.2966173853071566 0.0
0.3799999999990315 -0.30527540755502797 0.0
0.3899999999990023 -0.3078004725791755 0.0
0.3999999999989731 -0.30414733487405354 0.0
0.4099999999989439 -0.29439328486698924 0.0
0.4199999999989147 -0.2787366948612677 0.0
0.4299999999988856 -0.25749313610315705 0.0
0.4399999999988564 -0.2310891459519351 0.0
0.4499999999988272 -0.20005377078914077 0.0
0.4599999999987979 -0.16500805447939026 0.0
0.4699999999987687 -0.1266526830038858 0.0
0.4799999999987396 -0.0857540325129909 0.0
0.4899999999987104 -0.04312889974977072 0.0
0.4999999999986921 0.000371780052468738 0.0
0.5099999999987076 0.0438799026226848 0.0
0.5199999999987339 0.08652751268824685 0.0
0.5299999999987604 0.1274641249943765 0.0
0.5399999999987867 0.16587370276488758 0.0
0.549999999998813 0.20099095501856198 0.0
0.5599999999988394 0.23211662787003445 0.0
0.5699999999988659 0.2586314851466832 0.0
0.5799999999988923 0.280008699943657 0.0
0.5899999999989186 0.2958244105954929 0.0
0.5999999999989449 0.30576623133230235 0.0
0.6099999999989714 0.30963954888068623 0.0
0.6199999999989977 0.30737148064966036 0.0
0.6299999999990241 0.29901241702921466 0.0
0.6399999999990504 0.284735118792109 0.0
0.6499999999990768 0.2648313896666238 0.0
0.6599999999991032 0.23970639286604714 0.0
0.6699999999991295 0.20987072775395202 0.0
0.679999999999156 0.17593042795540478 0.0
0.6899999999991824 0.13857508420124962 0.0
0.6999999999992087 0.09856433318761226 0.0
0.7099999999992351 0.056712986999815515 0.0
0.7199999999992615 0.013875105538708054 0.0
0.7299999999992879 -0.029072663644004657 0.0
0.7399999999993142 -0.07124813806644573 0.0
0.7499999999993405 -0.11178069656210553 0.0
0.759999999999367 -0.14982806781114963 0.0
0.7699999999993933 -0.18459246451583278 0.0
0.7799999999994197 -0.21533572785886104 0.0
0.789999999999446 -0.24139316458633675 0.0
0.7999999999994724 -0.26218578278770394 0.0
0.8099999999994988 -0.27723066168335453 0.0
0.8199999999995252 -0.28614922483894994 0.0
0.8299999999995517 -0.28867322446020216 0.0
0.839999999999578 -0.2846482859486679 0.0
0.8499999999996044 -0.27403490580620093 0.0
0.8599999999996307 -0.25690684129130853 0.0
0.869999999999657 -0.2334468759409946 0.0
0.8799999999996835 -0.20393999013776487 0.0
0.8899999999997098 -0.168764009277748 0.0
0.8999999999997362 -0.1283778427493894 0.0
0.9099999999997626 -0.08330746385766716 0.0
0.9199999999997889 -0.03412981306627731 0.0
0.9299999999998153 0.018545166420012825 0.0
0.9399999999998417 0.07409413147676872 0.0
0.9499999999998682 0.13190133795554013 0.0
0.9599999999998945 0.1913807880647267 0.0
0.9699999999999208 0.2519992817583998 0.0
0.9799999999999472 0.3133001395978447 0.0
0.9899999999999736 0.3749273856847116 0.0

CELLS 100 300
2 0 2
2 2 3
2 3 4
2 4 5
2 5 6
2 6 7
2 7 8
2 8 9
2 9 10
2 10 11
2 11 12
2 12 13
2 13 14
2 14 15
2 15 16
2 16 17
2 17 18
2 18 19
2 19 20
2 20 21
2 21 22
2 22 23
2 23 24
2 24 25
2 25 26
2 26 27
2 27 28
2 28 29
2 29 30
2 30 31
2 31 32
2 32 33
2 33 34
2 34 35
2 35 36
2 36 37
2 37 38
2 38 39
2 39 40
2 40 41
2 41 42
2 42 43
2 43 44
2 44 45
2 45 46
2 46 47
2 47 48
2 48 49
2 49 50
2 50 51
2 51 52
2 52 53
2 53 54
2 54 55
2 55 56
2 56 57
2 57 58
2 58 59
2 59 60
2 60 61
2 61 62
2 62 63
2 63 64
2 64 65
2 65 66
2 66 67
2 67 68
2 68 69
2 69 70
2 70 71
2 71 72
2 72 73
2 73 74
2 74 75
2 75 76
2 76 77
2 77 78
2 78 79
2 79 80
2 80 81
2 81 82
2 82 83
2 83 84
2 84 85
2 85 86
2 86 87
2 87 88
2 88 89
2 89 90
2 90 91
2 91 92
2 92 93
2 93 94
2 94 95
2 95 96
2 96 97
2 97 98
2 98 99
2 99 100
2 100 1

CELL_TYPES 100
3
3
3
3
3
3
3
3
3
3
3
3
3
3
3
3
3
3
3
3
3
3
3
3
3
3
3
3
3
3
3
3
3
3
3
3
3
3
3
3
3
3
3
3
3
3
3
3
3
3
3
3
3
3
3
3
3
3
3
3
3
3
3
3
3
3
3
3
3
3
3
3
3
3
3
3
3
3
3
3
3
3
3
3
3
3
3
3
3
3
3
3
3
3
3
3
3
3
3
3

POINT_DATA 101
SCALARS MODE5_4.0139_Hz float 1
LOOKUP_TABLE default
0.0
0.25471262241865644
0.0024253939885791193
0.009221954210644803
0.019671426544044284
0.03305948365199841
0.04867985134547974
0.06583960926442048
0.08386538411781387
0.10211015911619983
0.11996043107898258
0.13684345724981453
0.152234347246042
0.16566277183896616
0.17671907935031897
0.18505963220489122
0.19041120036394796
0.19257427467000757
0.1914251911851314
0.18691698697253095
0.17907893798234162
0.16801476025208475
0.15389948599605344
0.13697505580364086
0.11754469656773697
0.09596618140939171
0.07264409227014372
0.048021227565169224
0.02256931593097122
-0.0032207876804126413
-0.028849235786858378
-0.053817456649615264
-0.07763835806039884
-0.09984626817273622
-0.12000641947632928
-0.1377237905386179
-0.15265113243931558
-0.16449602264602628
-0.17302680809584134
-0.1780773210737663
-0.17955027567118567
-0.1774192786765312
-0.1717294161724104
-0.16259640533573946
-0.15020432939350828
-0.13480200180529547
-0.11669803296033211
-0.09625469844631097
-0.07388073175226671
-0.050023185632578016
-0.02515852485403292
0.00021687169727343047
0.025596609863232797
0.05047438240147733
0.07435407291338629
0.09675965994618442
0.11724472376082781
0.13540136625752008
0.1508683663355652
0.1633384083004666
0.17256423951403752
0.17836363494384302
0.1806230701804003
0.17930003037896852
0.17442390993370854
0.16609548596206355
0.15448497730553054
0.13982872917186082
0.12242459118980534
0.10262608297398612
0.08083546578406227
0.057495861026107146
0.03308257574989238
0.008093811564246364
-0.01695905379233605
-0.04156141387209334
-0.06520540632789489
-0.08739970622317061
-0.10767893763423578
-0.12561250791766893
-0.14081267934202976
-0.15294170662616063
-0.1617178859819568
-0.16692038115605412
-0.16839271426845123
-0.16604483347005627
-0.15985369505361718
-0.14986232408659664
-0.1361773442989135
-0.1189649942470295
-0.09844567207868633
-0.07488707493714382
-0.04859602058363917
-0.0199090576219951
0.01081801374500748
0.04322157669478175
0.07694244714073173
0.11163879303775723
0.1469995810257332
0.18275841476540938
0.2187076416494151

