# vtk DataFile Version 2.0
mesh vtk view
ASCII
DATASET UNSTRUCTURED_GRID
POINTS 101 double
0.0 0.0 0.0
1.0 0.2183249955293465 0.0
0.009999999999981052 0.0006558819605658816 0.0
0.01999999999996226 0.0025530507644683114 0.0
0.02999999999994291 0.005585821547967607 0.0
0.03999999999992165 0.009648613834912454 0.0
0.04999999999989939 0.0146360663107305 0.0
0.05999999999987805 0.020443190806051642 0.0
0.06999999999986013 0.026965561480311873 0.0
0.07999999999984476 0.034099535210115266 0.0
0.08999999999982944 0.041742499208740784 0.0
0.09999999999981413 0.049793141933139065 0.0
0.1099999999997988 0.05815174337414117 0.0
0.1199999999997825 0.06672048087522943 0.0
0.1299999999997603 0.07540374668593176 0.0
0.1399999999997321 0.08410847352821238 0.0
0.1499999999997028 0.09274446453854031 0.0
0.1599999999996737 0.10122472404509826 0.0
0.1699999999996445 0.10946578574883142 0.0
0.1799999999996153 0.11738803499890739 0.0
0.1899999999995861 0.12491602198745326 0.0
0.1999999999995569 0.1319787628349351 0.0
0.2099999999995277 0.13851002569609194 0.0
0.2199999999994985 0.14444859918622335 0.0
0.2299999999994693 0.14973854060839073 0.0
0.2399999999994402 0.15432940165308123 0.0
0.2499999999994109 0.15817642944217353 0.0
0.2599999999993817 0.16124074099824023 0.0
0.2699999999993525 0.16348946943677503 0.0
0.2799999999993234 0.16489588040209843 0.0
0.2899999999992942 0.16543945749662903 0.0
0.299999999999265 0.16510595568640934 0.0
0.3099999999992358 0.16388742190221298 0.0
0.3199999999992066 0.16178218229418262 0.0
0.3299999999991775 0.15879479583720368 0.0
0.3399999999991483 0.15493597422289276 0.0
0.349999999999119 0.15022246821132745 0.0
0.3599999999990898 0.14467692084951347 0.0
0.3699999999990606 0.13832768819323435 0.0
0.3799999999990315 0.13120862839312064 0.0
0.3899999999990023 0.12335886022300538 0.0
0.3999999999989731 0.11482249233782624 0.0
0.4099999999989439 0.1056483247483927 0.0
0.4199999999989147 0.0958895241902172 0.0
0.4299999999988856 0.0856032752419073 0.0
0.4399999999988564 0.07485040921473846 0.0
0.4499999999988272 0.06369501298778106 0.0
0.4599999999987979 0.05220402010162284 0.0
0.4699999999987687 0.04044678654774801 0.0
0.4799999999987396 0.028494653798635507 0.0
0.4899999999987104 0.016420501715841085 0.0
0.4999999999986921 0.004298294048900071 0.0
0.5099999999987076 -0.0077973807035866885 0.0
0.5199999999987339 -0.019791770258081112 0.0
0.5299999999987604 -0.031610418499368326 0.0
0.5399999999987867 -0.04317962158015153 0.0
0.549999999998813 -0.05442687733574835 0.0
0.5599999999988394 -0.06528132521114242 0.0
0.5699999999988659 -0.07567417394339458 0.0
0.5799999999988923 -0.0855391143047851 0.0
0.5899999999989186 -0.09481271429070243 0.0
0.5999999999989449 -0.1034347942307122 0.0
0.6099999999989714 -0.1113487794106308 0.0
0.6199999999989977 -0.11850202791704204 0.0
0.6299999999990241 -0.12484613155281896 0.0
0.6399999999990504 -0.13033718782170348 0.0
0.6499999999990768 -0.13493604114099675 0.0
0.6599999999991032 -0.13860849161273545 0.0
0.6699999999991295 -0.1413254698642105 0.0
0.679999999999156 -0.143063176657067 0.0
0.6899999999991824 -0.14380318615931423 0.0
0.6999999999992087 -0.143532511975033 0.0
0.7099999999992351 -0.14224363523079778 0.0
0.7199999999992615 -0.13993449422464282 0.0
0.7299999999992879 -0.13660843535129727 0.0
0.7399999999993142 -0.13227412522490317 0.0
0.7499999999993405 -0.1269454241260298 0.0
0.759999999999367 -0.12064122110208915 0.0
0.7699999999993933 -0.11338523124772387 0.0
0.7799999999994197 -0.10520575588286048 0.0
0.789999999999446 -0.09613540652966618 0.0
0.7999999999994724 -0.08621079376396179 0.0
0.8099999999994988 -0.07547218218044446 0.0
0.8199999999995252 -0.06396311286317935 0.0
0.8299999999995517 -0.05172999489164034 0.0
0.839999999999578 -0.03882166753711266 0.0
0.8499999999996044 -0.025288934913276946 0.0
0.8599999999996307 -0.011184074937098993 0.0
0.869999999999657 0.0034396754692180404 0.0
0.8799999999996835 0.0185286569484749 0.0
0.8899999999997098 0.034029344027845077 0.0
0.8999999999997362 0.04988891914833052 0.0
0.9099999999997626 0.06605586237045823 0.0
0.9199999999997889 0.08248055474945717 0.0
0.9299999999998153 0.09911589342261207 0.0
0.9399999999998417 0.115917916523913 0.0
0.9499999999998682 0.13284643613697808 0.0
0.9599999999998945 0.14986567761683928 0.0
0.9699999999999208 0.16694492375487588 0.0
0.9799999999999472 0.18405916242920434 0.0
0.9899999999999736 0.20118973657536657 0.0

CELLS 100 300
2 0 2
2 2 3
2 3 4
2 4 5
2 5 6
2 6 7
2 7 8
2 8 9
2 9 10
2 10 11
2 11 12
2 12 13
2 13 14
2 14 15
2 15 16
2 16 17
2 17 18
2 18 19
2 19 20
2 20 21
2 21 22
2 22 23
2 23 24
2 24 25
2 25 26
2 26 27
2 27 28
2 28 29
2 29 30
2 30 31
2 31 32
2 32 33
2 33 34
2 34 35
2 35 36
2 36 37
2 37 38
2 38 39
2 39 40
2 40 41
2 41 42
2 42 43
2 43 44
2 44 45
2 45 46
2 46 47
2 47 48
2 48 49
2 49 50
2 50 51
2 51 52
2 52 53
2 53 54
2 54 55
2 55 56
2 56 57
2 57 58
2 58 59
2 59 60
2 60 61
2 61 62
2 62 63
2 63 64
2 64 65
2 65 66
2 66 67
2 67 68
2 68 69
2 69 70
2 70 71
2 71 72
2 72 73
2 73 74
2 74 75
2 75 76
2 76 77
2 77 78
2 78 79
2 79 80
2 80 81
2 81 82
2 82 83
2 83 84
2 84 85
2 85 86
2 86 87
2 87 88
2 88 89
2 89 90
2 90 91
2 91 92
2 92 93
2 93 94
2 94 95
2 95 96
2 96 97
2 97 98
2 98 99
2 99 100
2 100 1

CELL_TYPES 100
3
3
3
3
3
3
3
3
3
3
3
3
3
3
3
3
3
3
3
3
3
3
3
3
3
3
3
3
3
3
3
3
3
3
3
3
3
3
3
3
3
3
3
3
3
3
3
3
3
3
3
3
3
3
3
3
3
3
3
3
3
3
3
3
3
3
3
3
3
3
3
3
3
3
3
3
3
3
3
3
3
3
3
3
3
3
3
3
3
3
3
3
3
3
3
3
3
3
3
3

POINT_DATA 101
SCALARS MODE3_1.2391_Hz float 1
LOOKUP_TABLE default
0.0
0.25471249478423763
0.0007651956206601953
0.0029785592252130305
0.00651679180596221
0.011256716140731197
0.017075410695852253
0.02385038927372692
0.031459821727030525
0.039782791078467813
0.04869958241019759
0.05809199892199559
0.0678437006031647
0.07784056102110101
0.08797103780025374
0.09812655244958113
0.10820187529496371
0.118095511385948
0.12771008337363668
0.13695270749872532
0.14573535898536216
0.1539752233074243
0.16159502997877395
0.16852336571726062
0.17469496404312254
0.18005096859526148
0.1845391676825358
0.1881141978312803
0.19073771434290424
0.19237852713578155
0.1930127004127339
0.1926236149674776
0.1912019922192485
0.1887458793432131
0.18526059514340434
0.18075863659337493
0.17525954624654874
0.16878974099109909
0.16138230289210675
0.15307673312530745
0.14391867026017297
0.13395957439413064
0.12325637887312484
0.11187111155525344
0.09987048778222521
0.08732547741719487
0.07431084848574458
0.06090469011855999
0.04718791763903936
0.033243762765074764
0.019157252001814604
0.005014676390383417
-0.009096944154184472
-0.023090398634427967
-0.03687882158259639
-0.05037622517684346
-0.06349802355837308
-0.07616154607966617
-0.0882865362672937
-0.09979563335558263
-0.11061483333915285
-0.12067392660249758
-0.12990690931240262
-0.13825236590321574
-0.14565382014495548
-0.1520600524586541
-0.1574253813311629
-0.1617099068815247
-0.16487971484157893
-0.16690703943324486
-0.1677703838525333
-0.1674545973042052
-0.1659509077692641
-0.16325690992875
-0.15937650790984684
-0.15431981276238707
-0.14810299481370146
-0.1407480912857707
-0.1322827697890112
-0.12274004853000392
-0.11215797428461056
-0.10057925939128877
-0.08805087921051856
-0.07462363167370925
-0.060351660706913744
-0.045291945459964775
-0.02950375739882311
-0.013048087426615495
0.004012954714087714
0.021616766439887386
0.03970090136581926
0.05820373900638562
0.07706517276553461
0.09622731387436673
0.11563520899304743
0.13523756927789854
0.15498750882647447
0.1748432905529792
0.1947690777140219
0.21473568950073843
0.2347213593379277

