# vtk DataFile Version 2.0
mesh vtk view
ASCII
DATASET UNSTRUCTURED_GRID
POINTS 101 double
0.0 0.0 0.0
1.0 -0.2183249839796915 0.0
0.009999999999981052 -3.8205590191050577e-05 0.0
0.01999999999996226 -0.00015211792662926137 0.0
0.02999999999994291 -0.00034068036400131623 0.0
0.03999999999992165 -0.0006028362773372744 0.0
0.04999999999989939 -0.0009375290852996797 0.0
0.05999999999987805 -0.0013437022825705733 0.0
0.06999999999986013 -0.0018202994812055813 0.0
0.07999999999984476 -0.002366264460824632 0.0
0.08999999999982944 -0.0029805412275088327 0.0
0.09999999999981413 -0.003662074081272855 0.0
0.1099999999997988 -0.004409807691982596 0.0
0.1199999999997825 -0.005222687183587085 0.0
0.1299999999997603 -0.006099658226533347 0.0
0.1399999999997321 -0.0070396671382367175 0.0
0.1499999999997028 -0.008041660991473156 0.0
0.1599999999996737 -0.009104587730564337 0.0
0.1699999999996445 -0.010227396295227086 0.0
0.1799999999996153 -0.011409036751955828 0.0
0.1899999999995861 -0.012648460432805413 0.0
0.1999999999995569 -0.013944620081446509 0.0
0.2099999999995277 -0.015296470006368582 0.0
0.2199999999994985 -0.016702966241092673 0.0
0.2299999999994693 -0.01816306671126922 0.0
0.2399999999994402 -0.019675731408537685 0.0
0.2499999999994109 -0.021239922571003416 0.0
0.2599999999993817 -0.0228546048702159 0.0
0.2699999999993525 -0.02451874560452469 0.0
0.2799999999993234 -0.02623131489867144 0.0
0.2899999999992942 -0.027991285909492212 0.0
0.299999999999265 -0.029797635037606077 0.0
0.3099999999992358 -0.031649342144968035 0.0
0.3199999999992066 -0.03354539077816039 0.0
0.3299999999991775 -0.035484768397291006 0.0
0.3399999999991483 -0.03746646661036055 0.0
0.349999999999119 -0.03948948141299831 0.0
0.3599999999990898 -0.04155281343342749 0.0
0.3699999999990606 -0.04365546818253191 0.0
0.3799999999990315 -0.04579645630891923 0.0
0.3899999999990023 -0.047974793858831834 0.0
0.3999999999989731 -0.050189502540798445 0.0
0.4099999999989439 -0.052439609994919464 0.0
0.4199999999989147 -0.05472415006664327 0.0
0.4299999999988856 -0.05704216308490013 0.0
0.4399999999988564 -0.05939269614450639 0.0
0.4499999999988272 -0.06177480339271908 0.0
0.4599999999987979 -0.06418754631978121 0.0
0.4699999999987687 -0.06662999405338105 0.0
0.4799999999987396 -0.06910122365691666 0.0
0.4899999999987104 -0.07160032043143066 0.0
0.4999999999986921 -0.07412637822108326 0.0
0.5099999999987076 -0.07667849972208252 0.0
0.5199999999987339 -0.07925579679494557 0.0
0.5299999999987604 -0.08185739077998688 0.0
0.5399999999987867 -0.08448241281590366 0.0
0.549999999998813 -0.08713000416137763 0.0
0.5599999999988394 -0.08979931651958602 0.0
0.5699999999988659 -0.0924895123654904 0.0
0.5799999999988923 -0.09519976527579943 0.0
0.5899999999989186 -0.0979292602615166 0.0
0.5999999999989449 -0.1006771941029792 0.0
0.6099999999989714 -0.10344277568728429 0.0
0.6199999999989977 -0.10622522634796853 0.0
0.6299999999990241 -0.10902378020688178 0.0
0.6399999999990504 -0.11183768451815784 0.0
0.6499999999990768 -0.1146662000141623 0.0
0.6599999999991032 -0.11750860125334499 0.0
0.6699999999991295 -0.120364176969898 0.0
0.679999999999156 -0.1232322304251296 0.0
0.6899999999991824 -0.12611207976045552 0.0
0.6999999999992087 -0.12900305835195475 0.0
0.7099999999992351 -0.13190451516637308 0.0
0.7199999999992615 -0.13481581511849355 0.0
0.7299999999992879 -0.137736339429808 0.0
0.7399999999993142 -0.14066548598843154 0.0
0.7499999999993405 -0.14360266971012864 0.0
0.759999999999367 -0.14654732290038827 0.0
0.7699999999993933 -0.14949889561754223 0.0
0.7799999999994197 -0.15245685603678 0.0
0.789999999999446 -0.15542069081501622 0.0
0.7999999999994724 -0.158389905456555 0.0
0.8099999999994988 -0.1613640246794796 0.0
0.8199999999995252 -0.16434259278271357 0.0
0.8299999999995517 -0.16732517401368024 0.0
0.839999999999578 -0.17031135293651403 0.0
0.8499999999996044 -0.1733007348007749 0.0
0.8599999999996307 -0.1762929459106 0.0
0.869999999999657 -0.1792876339942441 0.0
0.8799999999996835 -0.1822844685739891 0.0
0.8899999999997098 -0.1852831413363591 0.0
0.8999999999997362 -0.18828336650258642 0.0
0.9099999999997626 -0.19128488119930437 0.0
0.9199999999997889 -0.1942874458294405 0.0
0.9299999999998153 -0.1972908444432786 0.0
0.9399999999998417 -0.20029488510964605 0.0
0.9499999999998682 -0.2032994002871948 0.0
0.9599999999998945 -0.20630424719576618 0.0
0.9699999999999208 -0.20930930818781865 0.0
0.9799999999999472 -0.21231449111989453 0.0
0.9899999999999736 -0.21531972972411473 0.0

CELLS 100 300
2 0 2
2 2 3
2 3 4
2 4 5
2 5 6
2 6 7
2 7 8
2 8 9
2 9 10
2 10 11
2 11 12
2 12 13
2 13 14
2 14 15
2 15 16
2 16 17
2 17 18
2 18 19
2 19 20
2 20 21
2 21 22
2 22 23
2 23 24
2 24 25
2 25 26
2 26 27
2 27 28
2 28 29
2 29 30
2 30 31
2 31 32
2 32 33
2 33 34
2 34 35
2 35 36
2 36 37
2 37 38
2 38 39
2 39 40
2 40 41
2 41 42
2 42 43
2 43 44
2 44 45
2 45 46
2 46 47
2 47 48
2 48 49
2 49 50
2 50 51
2 51 52
2 52 53
2 53 54
2 54 55
2 55 56
2 56 57
2 57 58
2 58 59
2 59 60
2 60 61
2 61 62
2 62 63
2 63 64
2 64 65
2 65 66
2 66 67
2 67 68
2 68 69
2 69 70
2 70 71
2 71 72
2 72 73
2 73 74
2 74 75
2 75 76
2 76 77
2 77 78
2 78 79
2 79 80
2 80 81
2 81 82
2 82 83
2 83 84
2 84 85
2 85 86
2 86 87
2 87 88
2 88 89
2 89 90
2 90 91
2 91 92
2 92 93
2 93 94
2 94 95
2 95 96
2 96 97
2 97 98
2 98 99
2 99 100
2 100 1

CELL_TYPES 100
3
3
3
3
3
3
3
3
3
3
3
3
3
3
3
3
3
3
3
3
3
3
3
3
3
3
3
3
3
3
3
3
3
3
3
3
3
3
3
3
3
3
3
3
3
3
3
3
3
3
3
3
3
3
3
3
3
3
3
3
3
3
3
3
3
3
3
3
3
3
3
3
3
3
3
3
3
3
3
3
3
3
3
3
3
3
3
3
3
3
3
3
3
3
3
3
3
3
3
3

POINT_DATA 101
SCALARS MODE1_0.0706_Hz float 1
LOOKUP_TABLE default
0.0
0.25471248130964
4.457318855622566e-05
0.00017747091440080488
0.00039746042466820217
0.00070330899022682
0.0010937839328496262
0.001567652662999002
0.0021236827280731777
0.0027606418709620697
0.003477298098760304
0.004272419761484997
0.005144775640646361
0.006093135047518265
0.0071162679309555695
0.008212944994609502
0.009381937823385346
0.010622019018991725
0.011931962344431597
0.013310542877281797
0.014756537171606313
0.016268723428354257
0.017845881674096675
0.01948679394794145
0.021190244496480753
0.022955019976627293
0.024779909666170646
0.026663705681918545
0.028605203205278797
0.030603200715116675
0.03265650022774091
0.03476390754387375
0.0369242325024627
0.03913628924118712
0.04139889646350616
0.0437108777120873
0.046071061648498016
0.04847828233899873
0.050931379546287216
0.053429199027072424
0.05597059283530379
0.058554419630931505
0.061179544994072695
0.06384484174441714
0.0665491902657168
0.06929147883525744
0.07207060395817225
0.0748854707064114
0.07773499306227788
0.08061809426640276
0.08353370717000243
0.08648077459126378
0.08945824967576292
0.09246509626076982
0.095500289243318
0.09856281495188758
0.10165167152160721
0.10476586927285034
0.10790443109307211
0.11106639282176597
0.11425080363843601
0.11745672645347571
0.12068323830183164
0.1239294307392966
0.12719441024136205
0.13047729860451746
0.133777233349856
0.13709336812890247
0.14042487313154764
0.1437709354959845
0.1471307597205314
0.15050356807728052
0.15388860102743523
0.15728511763824246
0.16069239600144264
0.16410973365317008
0.16753644799515005
0.1709718767171196
0.1744153782204659
0.17786633204290997
0.18132413928418556
0.18478822303264747
0.18825802879272616
0.1917330249131658
0.19521270301596025
0.198696578425933
0.202184190600904
0.20567510356236662
0.20916890632661808
0.2126652133363206
0.2161636648924189
0.21966392758635078
0.2231656947325217
0.22666868680101385
0.23017265185049166
0.23367736596125369
0.23718263366839387
0.24068828839506048
0.24419419288578836
0.2477002396398769
0.25120635134480046

