# vtk DataFile Version 2.0
mesh vtk view
ASCII
DATASET UNSTRUCTURED_GRID
POINTS 101 double
0.0 0.0 0.0
1.0 0.0 0.0
0.009999999999981052 0.029080627915921604 0.0
0.01999999999996226 0.05804648787910964 0.0
0.02999999999994291 0.08678326487355213 0.0
0.03999999999992165 0.11517754796904975 0.0
0.04999999999989939 0.14311727790235834 0.0
0.05999999999987805 0.17049218932390398 0.0
0.06999999999986013 0.1971942459647455 0.0
0.07999999999984476 0.2231180670063517 0.0
0.08999999999982944 0.24816134297054934 0.0
0.09999999999981413 0.2722252394883015 0.0
0.1099999999997988 0.29521478735380574 0.0
0.1199999999997825 0.3170392573245578 0.0
0.1299999999997603 0.3376125181882213 0.0
0.1399999999997321 0.3568533766831891 0.0
0.1499999999997028 0.3746858979312883 0.0
0.1599999999996737 0.39103970511803565 0.0
0.1699999999996445 0.40585025723779483 0.0
0.1799999999996153 0.4190591038076409 0.0
0.1899999999995861 0.4306141155446939 0.0
0.1999999999995569 0.4404696900965863 0.0
0.2099999999995277 0.4485869320131243 0.0
0.2199999999994985 0.4549338062488472 0.0
0.2299999999994693 0.45948526459072603 0.0
0.2399999999994402 0.4622233445120181 0.0
0.2499999999994109 0.4631372400621575 0.0
0.2599999999993817 0.4622233445129053 0.0
0.2699999999993525 0.4594852645924382 0.0
0.2799999999993234 0.4549338062512826 0.0
0.2899999999992942 0.44858693201615757 0.0
0.299999999999265 0.4404696901000506 0.0
0.3099999999992358 0.4306141155483809 0.0
0.3199999999992066 0.41905910381132483 0.0
0.3299999999991775 0.4058502572412397 0.0
0.3399999999991483 0.391039705121001 0.0
0.349999999999119 0.3746858979335273 0.0
0.3599999999990898 0.35685337668444855 0.0
0.3699999999990606 0.3376125181882598 0.0
0.3799999999990315 0.3170392573231697 0.0
0.3899999999990023 0.29521478735082146 0.0
0.3999999999989731 0.2722252394835721 0.0
0.4099999999989439 0.24816134296394898 0.0
0.4199999999989147 0.22311806699777978 0.0
0.4299999999988856 0.1971942459541295 0.0
0.4399999999988564 0.17049218931120713 0.0
0.4499999999988272 0.14311727788758657 0.0
0.4599999999987979 0.11517754795225459 0.0
0.4699999999987687 0.08678326485481382 0.0
0.4799999999987396 0.0580464878585439 0.0
0.4899999999987104 0.029080627893684704 0.0
0.4999999999986921 -2.37463724231215e-11 0.0
0.5099999999987076 -0.029080627941103287 0.0
0.5199999999987339 -0.05804648790560803 0.0
0.5299999999987604 -0.08678326490118803 0.0
0.5399999999987867 -0.11517754799762471 0.0
0.549999999998813 -0.1431172779316576 0.0
0.5599999999988394 -0.17049218935367527 0.0
0.5699999999988659 -0.197194245994689 0.0
0.5799999999988923 -0.22311806703613862 0.0
0.5899999999989186 -0.2481613429998453 0.0
0.5999999999989449 -0.2722252395167868 0.0
0.6099999999989714 -0.2952147873811637 0.0
0.6199999999989977 -0.3170392573504881 0.0
0.6299999999990241 -0.33761251821248073 0.0
0.6399999999990504 -0.35685337670557554 0.0
0.6499999999990768 -0.37468589795162816 0.0
0.6599999999991032 -0.39103970513621406 0.0
0.6699999999991295 -0.4058502572537731 0.0
0.679999999999156 -0.41905910382142214 0.0
0.6899999999991824 -0.43061411555628515 0.0
0.6999999999992087 -0.44046969010601816 0.0
0.7099999999992351 -0.44858693202047567 0.0
0.7199999999992615 -0.4549338062542879 0.0
0.7299999999992879 -0.45948526459450895 0.0
0.7399999999993142 -0.46222334451441854 0.0
0.7499999999993405 -0.46313724006351104 0.0
0.759999999999367 -0.46222334451359093 0.0
0.7699999999993933 -0.45948526459282896 0.0
0.7799999999994197 -0.4549338062517381 0.0
0.789999999999446 -0.4485869320170114 0.0
0.7999999999994724 -0.44046969010160486 0.0
0.8099999999994988 -0.43061411555090473 0.0
0.8199999999995252 -0.4190591038150489 0.0
0.8299999999995517 -0.4058502572463499 0.0
0.839999999999578 -0.39103970512766284 0.0
0.8499999999996044 -0.37468589794188306 0.0
0.8599999999996307 -0.35685337669459344 0.0
0.869999999999657 -0.3376125182002167 0.0
0.8799999999996835 -0.317039257336903 0.0
0.8899999999997098 -0.29521478736625567 0.0
0.8999999999997362 -0.2722252395005915 0.0
0.9099999999997626 -0.24816134298240153 0.0
0.9199999999997889 -0.22311806701750309 0.0
0.9299999999998153 -0.19719424597496746 0.0
0.9399999999998417 -0.17049218933299742 0.0
0.9499999999998682 -0.1431172779101547 0.0
0.9599999999998945 -0.11517754797541671 0.0
0.9699999999999208 -0.08678326487839186 0.0
0.9799999999999472 -0.05804648788235685 0.0
0.9899999999999736 -0.02908062791754242 0.0

CELLS 100 300
2 0 2
2 2 3
2 3 4
2 4 5
2 5 6
2 6 7
2 7 8
2 8 9
2 9 10
2 10 11
2 11 12
2 12 13
2 13 14
2 14 15
2 15 16
2 16 17
2 17 18
2 18 19
2 19 20
2 20 21
2 21 22
2 22 23
2 23 24
2 24 25
2 25 26
2 26 27
2 27 28
2 28 29
2 29 30
2 30 31
2 31 32
2 32 33
2 33 34
2 34 35
2 35 36
2 36 37
2 37 38
2 38 39
2 39 40
2 40 41
2 41 42
2 42 43
2 43 44
2 44 45
2 45 46
2 46 47
2 47 48
2 48 49
2 49 50
2 50 51
2 51 52
2 52 53
2 53 54
2 54 55
2 55 56
2 56 57
2 57 58
2 58 59
2 59 60
2 60 61
2 61 62
2 62 63
2 63 64
2 64 65
2 65 66
2 66 67
2 67 68
2 68 69
2 69 70
2 70 71
2 71 72
2 72 73
2 73 74
2 74 75
2 75 76
2 76 77
2 77 78
2 78 79
2 79 80
2 80 81
2 81 82
2 82 83
2 83 84
2 84 85
2 85 86
2 86 87
2 87 88
2 88 89
2 89 90
2 90 91
2 91 92
2 92 93
2 93 94
2 94 95
2 95 96
2 96 97
2 97 98
2 98 99
2 99 100
2 100 1

CELL_TYPES 100
3
3
3
3
3
3
3
3
3
3
3
3
3
3
3
3
3
3
3
3
3
3
3
3
3
3
3
3
3
3
3
3
3
3
3
3
3
3
3
3
3
3
3
3
3
3
3
3
3
3
3
3
3
3
3
3
3
3
3
3
3
3
3
3
3
3
3
3
3
3
3
3
3
3
3
3
3
3
3
3
3
3
3
3
3
3
3
3
3
3
3
3
3
3
3
3
3
3
3
3

POINT_DATA 101
SCALARS MODE2_792.8665_Hz float 1
LOOKUP_TABLE default
0.0
0.0
-0.011309133078413957
-0.022573634175209304
-0.033749047450825825
-0.044791268654630456
-0.05565671918425046
-0.0663025180704071
-0.07668665120851213
-0.08676813716913677
-0.0965071889329914
-0.10586537091211726
-0.11480575063759112
-0.1232930445151058
-0.13129375707319715
-0.13877631315457353
-0.14571118252883433
-0.15207099643479163
-0.15783065559247575
-0.162967429258527
-0.16746104493404762
-0.17129376837089466
-0.17445047356065943
-0.17691870243010724
-0.17868871400750455
-0.1797535228657848
-0.18010892669083903
-0.17975352286612983
-0.1786887140081704
-0.17691870243105434
-0.17445047356183904
-0.1712937683722419
-0.16746104493548145
-0.16296742925995963
-0.15783065559381543
-0.15207099643594482
-0.14571118252970505
-0.1387763131550633
-0.13129375707321214
-0.12329304451456598
-0.11480575063643056
-0.10586537091027802
-0.09650718893042459
-0.08676813716580324
-0.07668665120438369
-0.06630251806546944
-0.055656719178505884
-0.044791268648099
-0.0337490474435387
-0.022573634167211518
-0.011309133069766273
9.234700386769472e-12
0.011309133088206833
0.02257363418551423
0.03374904746157312
0.04479126866574294
0.05565671919564462
0.06630251808198483
0.07668665122015682
0.08676813718072057
0.09650718894438427
0.10586537092319485
0.11480575064823031
0.12329304452518981
0.13129375708263138
0.13877631316327937
0.14571118253674428
0.152070996441861
0.15783065559868953
0.16296742926388638
0.16746104493855532
0.17129376837456262
0.1744504735635183
0.17691870243222307
0.17868871400897568
0.1797535228667183
0.18010892669136538
0.17975352286639645
0.17868871400832237
0.17691870243123148
0.17445047356217108
0.17129376837284632
0.16746104493646294
0.1629674292614079
0.15783065559580273
0.15207099643853553
0.1457111825329545
0.13877631315900854
0.13129375707786203
0.12329304451990672
0.11480575064243274
0.1058653709168967
0.09650718893760059
0.08676813717347341
0.07668665121248734
0.06630251807394344
0.05565671918728238
0.044791268657106496
0.033749047452707945
0.022573634176472106
0.011309133079044274

