# vtk DataFile Version 2.0
mesh vtk view
ASCII
DATASET UNSTRUCTURED_GRID
POINTS 101 double
0.0 0.0 0.0
1.0 0.0 0.0
0.009999999999981052 -0.004849163991397044 0.0
0.01999999999996226 -0.009693542443338386 0.0
0.02999999999994291 -0.014528354539162645 0.0
0.03999999999992165 -0.019348828903046608 0.0
0.04999999999989939 -0.024150208308778516 0.0
0.05999999999987805 -0.02892775437456542 0.0
0.06999999999986013 -0.03367675223924368 0.0
0.07999999999984476 -0.03839251521527591 0.0
0.08999999999982944 -0.04307038941394643 0.0
0.09999999999981413 -0.04770575833818929 0.0
0.1099999999997988 -0.05229404743851296 0.0
0.1199999999997825 -0.05683072862752823 0.0
0.1299999999997603 -0.06131132474862148 0.0
0.1399999999997321 -0.0657314139943718 0.0
0.1499999999997028 -0.07008663427034104 0.0
0.1599999999996737 -0.07437268749992969 0.0
0.1699999999996445 -0.07858534386606231 0.0
0.1799999999996153 -0.08272044598550769 0.0
0.1899999999995861 -0.08677391301171314 0.0
0.1999999999995569 -0.09074174466210742 0.0
0.2099999999995277 -0.0946200251658954 0.0
0.2199999999994985 -0.0984049271284525 0.0
0.2299999999994693 -0.10209271530850043 0.0
0.2399999999994402 -0.10567975030433731 0.0
0.2499999999994109 -0.10916249214549144 0.0
0.2599999999993817 -0.11253750378624403 0.0
0.2699999999993525 -0.11580145449757581 0.0
0.2799999999993234 -0.1189511231541999 0.0
0.2899999999992942 -0.12198340141341661 0.0
0.299999999999265 -0.1248952967826726 0.0
0.3099999999992358 -0.12768393557279478 0.0
0.3199999999992066 -0.1303465657339735 0.0
0.3299999999991775 -0.13288055957170378 0.0
0.3399999999991483 -0.13528341633999857 0.0
0.349999999999119 -0.13755276470932634 0.0
0.3599999999990898 -0.13968636510682994 0.0
0.3699999999990606 -0.14168211192650537 0.0
0.3799999999990315 -0.14353803560718742 0.0
0.3899999999990023 -0.1452523045762736 0.0
0.3999999999989731 -0.14682322705725842 0.0
0.4099999999989439 -0.14824925273931328 0.0
0.4199999999989147 -0.14952897430725953 0.0
0.4299999999988856 -0.15066112883041496 0.0
0.4399999999988564 -0.15164459900895128 0.0
0.4499999999988272 -0.15247841427653697 0.0
0.4599999999987979 -0.15316175175816193 0.0
0.4699999999987687 -0.15369393708222792 0.0
0.4799999999987396 -0.15407444504607531 0.0
0.4899999999987104 -0.15430290013428147 0.0
0.4999999999986921 -0.15437907688925528 0.0
0.5099999999987076 -0.15430290013373976 0.0
0.5199999999987339 -0.1540744450449992 0.0
0.5299999999987604 -0.15369393708062257 0.0
0.5399999999987867 -0.15316175175603064 0.0
0.549999999998813 -0.15247841427389303 0.0
0.5599999999988394 -0.15164459900580596 0.0
0.5699999999988659 -0.15066112882676913 0.0
0.5799999999988923 -0.14952897430311649 0.0
0.5899999999989186 -0.14824925273468276 0.0
0.5999999999989449 -0.14682322705216333 0.0
0.6099999999989714 -0.14525230457073882 0.0
0.6199999999989977 -0.14353803560123385 0.0
0.6299999999990241 -0.14168211192016408 0.0
0.6399999999990504 -0.13968636510013016 0.0
0.6499999999990768 -0.1375527647022821 0.0
0.6599999999991032 -0.13528341633261937 0.0
0.6699999999991295 -0.13288055956400494 0.0
0.679999999999156 -0.13034656572596756 0.0
0.6899999999991824 -0.1276839355644892 0.0
0.6999999999992087 -0.1248952967740788 0.0
0.7099999999992351 -0.1219834014045493 0.0
0.7199999999992615 -0.11895112314508804 0.0
0.7299999999992879 -0.11580145448826029 0.0
0.7399999999993142 -0.11253750377676425 0.0
0.7499999999993405 -0.10916249213589262 0.0
0.759999999999367 -0.10567975029466704 0.0
0.7699999999993933 -0.10209271529880361 0.0
0.7799999999994197 -0.09840492711877388 0.0
0.789999999999446 -0.09462002515628018 0.0
0.7999999999994724 -0.09074174465259785 0.0
0.8099999999994988 -0.0867739130023453 0.0
0.8199999999995252 -0.08272044597631498 0.0
0.8299999999995517 -0.07858534385708443 0.0
0.839999999999578 -0.07437268749120642 0.0
0.8499999999996044 -0.0700866342619116 0.0
0.8599999999996307 -0.06573141398627133 0.0
0.869999999999657 -0.06131132474087662 0.0
0.8799999999996835 -0.05683072862016784 0.0
0.8899999999997098 -0.05229404743156985 0.0
0.8999999999997362 -0.04770575833169615 0.0
0.9099999999997626 -0.043070389407937185 0.0
0.9199999999997889 -0.038392515209786836 0.0
0.9299999999998153 -0.033676752234310166 0.0
0.9399999999998417 -0.02892775437022083 0.0
0.9499999999998682 -0.024150208305057264 0.0
0.9599999999998945 -0.01934882889998612 0.0
0.9699999999999208 -0.014528354536803137 0.0
0.9799999999999472 -0.009693542441722323 0.0
0.9899999999999736 -0.004849163990567187 0.0

CELLS 100 300
2 0 2
2 2 3
2 3 4
2 4 5
2 5 6
2 6 7
2 7 8
2 8 9
2 9 10
2 10 11
2 11 12
2 12 13
2 13 14
2 14 15
2 15 16
2 16 17
2 17 18
2 18 19
2 19 20
2 20 21
2 21 22
2 22 23
2 23 24
2 24 25
2 25 26
2 26 27
2 27 28
2 28 29
2 29 30
2 30 31
2 31 32
2 32 33
2 33 34
2 34 35
2 35 36
2 36 37
2 37 38
2 38 39
2 39 40
2 40 41
2 41 42
2 42 43
2 43 44
2 44 45
2 45 46
2 46 47
2 47 48
2 48 49
2 49 50
2 50 51
2 51 52
2 52 53
2 53 54
2 54 55
2 55 56
2 56 57
2 57 58
2 58 59
2 59 60
2 60 61
2 61 62
2 62 63
2 63 64
2 64 65
2 65 66
2 66 67
2 67 68
2 68 69
2 69 70
2 70 71
2 71 72
2 72 73
2 73 74
2 74 75
2 75 76
2 76 77
2 77 78
2 78 79
2 79 80
2 80 81
2 81 82
2 82 83
2 83 84
2 84 85
2 85 86
2 86 87
2 87 88
2 88 89
2 89 90
2 90 91
2 91 92
2 92 93
2 93 94
2 94 95
2 95 96
2 96 97
2 97 98
2 98 99
2 99 100
2 100 1

CELL_TYPES 100
3
3
3
3
3
3
3
3
3
3
3
3
3
3
3
3
3
3
3
3
3
3
3
3
3
3
3
3
3
3
3
3
3
3
3
3
3
3
3
3
3
3
3
3
3
3
3
3
3
3
3
3
3
3
3
3
3
3
3
3
3
3
3
3
3
3
3
3
3
3
3
3
3
3
3
3
3
3
3
3
3
3
3
3
3
3
3
3
3
3
3
3
3
3
3
3
3
3
3
3

POINT_DATA 101
SCALARS MODE1_198.2166_Hz float 1
LOOKUP_TABLE default
0.0
0.0
-0.00565735798996322
-0.011309132850561452
-0.016949746962356422
-0.02257363372022105
-0.028175243026908273
-0.03374904677032633
-0.03928954427911763
-0.04479126775115524
-0.05024878764960418
-0.05565671806122085
-0.06100972201159846
-0.06630251673211628
-0.07152987887339174
-0.07668664966010044
-0.08176773998206456
-0.08676813541658465
-0.09168290117707271
-0.09650718698309232
-0.10123623184699868
-0.10586536877245868
-0.11039002936021133
-0.11480574831652794
-0.1191081678599172
-0.12329304202172689
-0.1273562408364067
-0.13129375441728472
-0.13510169691383847
-0.13877631034656657
-0.14231396831565274
-0.14571117957978472
-0.14896459150159394
-0.15207099335630245
-0.15502731950032111
-0.15783065239666502
-0.1604782254942141
-0.1629674259579683
-0.16529579724758964
-0.16746104154171867
-0.16946102200565258
-0.17129376490013484
-0.17295746152919886
-0.17445047002513614
-0.17577131696881748
-0.17691869884377653
-0.1778914833226265
-0.17868871038452228
-0.17930959326259927
-0.17975351922042124
-0.18002005015666175
-0.18010892303746454
-0.18002005015602976
-0.17975351921916577
-0.17930959326072635
-0.1786887103820358
-0.17789148331954188
-0.176918698840107
-0.17577131696456402
-0.1744504700203026
-0.17295746152379657
-0.17129376489419057
-0.16946102199919533
-0.16746104153477287
-0.16529579724019147
-0.1629674259501519
-0.1604782254859958
-0.15783065238805596
-0.1550273194913391
-0.15207099334696217
-0.1489645914919041
-0.14571117956975863
-0.14231396830530754
-0.13877631033593607
-0.13510169690297036
-0.13129375440622498
-0.12735624082520808
-0.1232930420104449
-0.11910816784860423
-0.11480574830523622
-0.11039002934899356
-0.10586536876136418
-0.10123623183606953
-0.09650718697236749
-0.09168290116659852
-0.0867681354064075
-0.08176773997223022
-0.0766866496506499
-0.07152987886435606
-0.06630251672352916
-0.06100972200349817
-0.05565671805364552
-0.05024878764259339
-0.04479126774475132
-0.039289544273361864
-0.03374904676525764
-0.028175243022566812
-0.022573633716650474
-0.016949746959603662
-0.011309132848676046
-0.005657357988995053

