# vtk DataFile Version 2.0
mesh vtk view
ASCII
DATASET UNSTRUCTURED_GRID
POINTS 21 double
0.0 0.0 0.0
2.0 0.0 0.0
0.09999999999979879 0.0001222157679308473 0.0
0.1999999999996283 0.0003811166256958255 0.0
0.2999999999994057 0.000627368147449389 0.0
0.3999999999991138 0.0007462577301271626 0.0
0.4999999999988219 0.0006784425538768771 0.0
0.59999999999853 0.0004299063446260425 0.0
0.6999999999982381 6.585567394423513e-05 0.0
0.7999999999979462 -0.0003109905414900224 0.0
0.8999999999976543 -0.0005920924072772953 0.0
0.9999999999973842 -0.0006958606355726518 0.0
1.099999999997626 -0.0005920924072868618 0.0
1.19999999999789 -0.00031099054150444776 0.0
1.299999999998154 6.58556739301676e-05 0.0
1.399999999998418 0.0004299063446162186 0.0
1.499999999998681 0.0006784425538727536 0.0
1.599999999998945 0.0007462577301277395 0.0
1.699999999999209 0.0006273681474521236 0.0
1.799999999999472 0.00038111662569830163 0.0
1.899999999999736 0.00012221576793185692 0.0

CELLS 20 60
2 0 2
2 2 3
2 3 4
2 4 5
2 5 6
2 6 7
2 7 8
2 8 9
2 9 10
2 10 11
2 11 12
2 12 13
2 13 14
2 14 15
2 15 16
2 16 17
2 17 18
2 18 19
2 19 20
2 20 1

CELL_TYPES 20
3
3
3
3
3
3
3
3
3
3
3
3
3
3
3
3
3
3
3
3

POINT_DATA 21
SCALARS MODE3_1214.1607_Hz float 1
LOOKUP_TABLE default
0.0
0.0
0.011120383062832986
0.03467770927684203
0.057084075477107095
0.0679018097510125
0.06173132332242486
0.03911707396126607
0.005992191789322145
0.028296953894228396
0.05387434444010532
0.0633161903486365
0.05387434444097577
0.02829695389554096
0.005992191788042144
0.039117073960372194
0.06173132332204966
0.06790180975106498
0.05708407547735592
0.034677709277067335
0.011120383062924849

