# vtk DataFile Version 2.0
mesh vtk view
ASCII
DATASET UNSTRUCTURED_GRID
POINTS 21 double
0.0 0.0 0.0
2.0 0.0 0.0
0.09999999999979879 -0.0003370179905355538 0.0
0.1999999999996283 -0.0011462462569139275 0.0
0.2999999999994057 -0.0021341465085084415 0.0
0.3999999999991138 -0.003035136147926446 0.0
0.4999999999988219 -0.0036340197114871978 0.0
0.59999999999853 -0.0037865539661816844 0.0
0.6999999999982381 -0.0034331126630136465 0.0
0.7999999999979462 -0.002602076235225906 0.0
0.8999999999976543 -0.0014015424769690745 0.0
0.9999999999973842 -3.772885743375992e-14 0.0
1.099999999997626 0.0014015424769058596 0.0
1.19999999999789 0.0026020762351823576 0.0
1.299999999998154 0.0034331126629916758 0.0
1.399999999998418 0.003786553966178611 0.0
1.499999999998681 0.0036340197114969925 0.0
1.599999999998945 0.003035136147941617 0.0
1.699999999999209 0.002134146508522114 0.0
1.799999999999472 0.0011462462569224558 0.0
1.899999999999736 0.00033701799053846045 0.0

CELLS 20 60
2 0 2
2 2 3
2 3 4
2 4 5
2 5 6
2 6 7
2 7 8
2 8 9
2 9 10
2 10 11
2 11 12
2 12 13
2 13 14
2 14 15
2 15 16
2 16 17
2 17 18
2 18 19
2 19 20
2 20 1

CELL_TYPES 20
3
3
3
3
3
3
3
3
3
3
3
3
3
3
3
3
3
3
3
3

POINT_DATA 21
SCALARS MODE2_619.3146_Hz float 1
LOOKUP_TABLE default
0.0
0.0
0.0060336489185526185
0.02052130059120418
0.03820772520966169
0.05433818505503323
0.06506002563059166
0.06779085355884888
0.061463177302626334
0.046585093091657905
0.02509188081334163
6.754615076797294e-13
0.025091880812209894
0.04658509309087825
0.06146317730223299
0.06779085355879386
0.06506002563076702
0.05433818505530484
0.03820772520990647
0.020521300591356862
0.006033648918604656

