# vtk DataFile Version 2.0
mesh vtk view
ASCII
DATASET UNSTRUCTURED_GRID
POINTS 21 double
0.0 0.0 0.0
2.0 0.0 0.0
0.09999999999979879 -7.072793919093037e-05 0.0
0.1999999999996283 -0.0002591966466440724 0.0
0.2999999999994057 -0.0005300974621588512 0.0
0.3999999999991138 -0.000848975606895735 0.0
0.4999999999988219 -0.00118305973404224 0.0
0.59999999999853 -0.0015022424548469975 0.0
0.6999999999982381 -0.0017801098257789318 0.0
0.7999999999979462 -0.001994926142316964 0.0
0.8999999999976543 -0.002130491916555772 0.0
0.9999999999973842 -0.0021768074856095333 0.0
1.099999999997626 -0.0021304919165601455 0.0
1.19999999999789 -0.0019949261423244037 0.0
1.299999999998154 -0.0017801098257880126 0.0
1.399999999998418 -0.001502242454856335 0.0
1.499999999998681 -0.0011830597340506328 0.0
1.599999999998945 -0.0008489756069022952 0.0
1.699999999999209 -0.0005300974621631199 0.0
1.799999999999472 -0.00025919664664626627 0.0
1.899999999999736 -7.072793919158865e-05 0.0

CELLS 20 60
2 0 2
2 2 3
2 3 4
2 4 5
2 5 6
2 6 7
2 7 8
2 8 9
2 9 10
2 10 11
2 11 12
2 12 13
2 13 14
2 14 15
2 15 16
2 16 17
2 17 18
2 18 19
2 19 20
2 20 1

CELL_TYPES 20
3
3
3
3
3
3
3
3
3
3
3
3
3
3
3
3
3
3
3
3

POINT_DATA 21
SCALARS MODE1_224.6679_Hz float 1
LOOKUP_TABLE default
0.0
0.0
0.002323478197575271
0.008514849495846053
0.017414191760786003
0.027889633650578963
0.03886460612200095
0.049350053617235025
0.058478253668915584
0.06553516828666185
0.06998862931471445
0.07151013858157156
0.06998862931485812
0.06553516828690625
0.0584782536692139
0.04935005361754177
0.03886460612227666
0.02788963365079447
0.017414191760926234
0.008514849495918124
0.0023234781975968962

