# vtk DataFile Version 2.0
mesh vtk view
ASCII
DATASET UNSTRUCTURED_GRID
POINTS 21 double
0.0 0.0 0.0
2.0 0.0 0.0
0.09999999999979879 1.6048475739788234e-05 0.0
0.1999999999996283 5.4583155091139254e-05 0.0
0.2999999999994057 0.00010162602421468742 0.0
0.3999999999991138 0.0001445302927584018 0.0
0.4999999999988219 0.00017304855768986608 0.0
0.59999999999853 0.00018031209362769877 0.0
0.6999999999982381 0.00016348155538160178 0.0
0.7999999999979462 0.00012390839215361424 0.0
0.8999999999976543 6.674011795090813e-05 0.0
0.9999999999973842 1.7966122587504674e-15 0.0
1.099999999997626 -6.67401179478979e-05 0.0
1.19999999999789 -0.0001239083921515405 0.0
1.299999999998154 -0.00016348155538055555 0.0
1.399999999998418 -0.0001803120936275524 0.0
1.499999999998681 -0.0001730485576903325 0.0
1.599999999998945 -0.00014453029275912423 0.0
1.699999999999209 -0.0001016260242153385 0.0
1.799999999999472 -5.458315509154536e-05 0.0
1.899999999999736 -1.6048475739926643e-05 0.0

CELLS 20 60
2 0 2
2 2 3
2 3 4
2 4 5
2 5 6
2 6 7
2 7 8
2 8 9
2 9 10
2 10 11
2 11 12
2 12 13
2 13 14
2 14 15
2 15 16
2 16 17
2 17 18
2 18 19
2 19 20
2 20 1

CELL_TYPES 20
3
3
3
3
3
3
3
3
3
3
3
3
3
3
3
3
3
3
3
3

POINT_DATA 21
SCALARS MODE2_619.3146_Hz float 1
LOOKUP_TABLE default
0.0
0.0
0.0060336489185526185
0.02052130059120418
0.03820772520966169
0.05433818505503323
0.06506002563059166
0.06779085355884888
0.061463177302626334
0.046585093091657905
0.02509188081334163
6.754615076797294e-13
0.025091880812209894
0.04658509309087825
0.06146317730223299
0.06779085355879386
0.06506002563076702
0.05433818505530484
0.03820772520990647
0.020521300591356862
0.006033648918604656

