# vtk DataFile Version 2.0
mesh vtk view
ASCII
DATASET UNSTRUCTURED_GRID
POINTS 150 double
0.0 0.0 0.0
1005.3930678179609 25.99970148015915 0.0
0.0 1005.3763611527751 0.0
20.107861356349087 0.018802244128686998 0.0
40.21572271269629 0.07452306928727073 0.0
60.323584069035284 0.1661336146345008 0.0
80.43144542539463 0.2926050193293322 0.0
100.53930678176127 0.4529084225305436 0.0
120.64716813812687 0.6460149633968711 0.0
140.75502949445732 0.8708957810866892 0.0
160.86289085076677 1.1265220147588098 0.0
180.97075220707623 1.4118648035722179 0.0
201.0786135633858 1.7258952866856723 0.0
221.18647491969523 2.067584603257924 0.0
241.29433627600466 2.435903892447735 0.0
261.40219763233154 2.8298242934142155 0.0
281.5100589886983 3.248316945316664 0.0
301.61792034506493 3.690352987313076 0.0
321.72578170143163 4.154903558562227 0.0
341.83364305779827 4.640939798222882 0.0
361.9415044141648 5.1474328454538165 0.0
382.04936577053144 5.6733538394138305 0.0
402.15722712689814 6.217673919261714 0.0
422.26508848326483 6.779364224156248 0.0
442.3729498396315 7.357395893256239 0.0
462.480811195998 7.950740065720479 0.0
482.58867255236464 8.558367880707769 0.0
502.6965339087425 9.179250477377263 0.0
522.8043952651648 9.812358994888855 0.0
542.9122566215314 10.456664572398198 0.0
563.0201179778978 11.11113834906582 0.0
583.1279793342644 11.774751464050519 0.0
603.2358406906308 12.446475056511103 0.0
623.3437020469974 13.125280265606394 0.0
643.4515634033638 13.810138230495168 0.0
663.5594247597303 14.500020090336191 0.0
683.6672861160968 15.193896984288253 0.0
703.7751474724633 15.890740051510113 0.0
723.8830088288298 16.589520431160533 0.0
743.9908701851963 17.28920926239829 0.0
764.0987315415629 17.988777684382118 0.0
784.2065928979293 18.687196836270747 0.0
804.3144542542959 19.38343785722292 0.0
824.4223156106623 20.076471886397357 0.0
844.5301769670289 20.765270062952872 0.0
864.6380383233953 21.448803526048152 0.0
884.7458996797618 22.126043414841874 0.0
904.8537610361283 22.795960868492767 0.0
924.9616223924947 23.457527026159532 0.0
945.0694837488612 24.109713027000875 0.0
965.1773451052278 24.75149001017547 0.0
985.2852064615943 25.381829114841985 0.0
984.9435669276195 45.245595139617876 0.0
964.5128492751572 64.51027203695375 0.0
944.1006124376333 83.79342974921995 0.0
923.7065539920893 103.09476585348617 0.0
903.3303715155877 122.41397792680232 0.0
882.971762585189 141.7507635462205 0.0
862.6304247779664 161.10482028878016 0.0
842.306055670969 180.47584573154435 0.0
821.9983528412423 199.863537451579 0.0
801.7070138658423 219.2675930259404 0.0
781.431736321825 238.6877100316844 0.0
761.1722177862467 258.1235860458673 0.0
740.9281558361546 277.5749186455533 0.0
720.6992480485933 297.0414054078095 0.0
700.4851920006391 316.5227439096728 0.0
680.2856852693479 336.018631728199 0.0
660.100425431776 355.5287664404443 0.0
639.9291100649791 375.0528456234647 0.0
619.7714367460134 394.59056685431625 0.0
599.6271030519349 414.141627710055 0.0
579.4958065597997 433.7057257677369 0.0
559.3772448466636 453.2825586044183 0.0
539.2711154895829 472.8718237971547 0.0
519.1771160656136 492.4732189230026 0.0
499.09494415180046 512.0864415590288 0.0
479.02429732516595 531.711189282322 0.0
458.96487316286664 551.34715966984 0.0
438.9163692419023 570.9940502986938 0.0
418.87848313932966 590.6515587459386 0.0
398.8509124322043 610.3193825886307 0.0
378.83335469758265 629.9972194038262 0.0
358.8255075125203 649.6847667685813 0.0
338.82706845407364 669.3817222599517 0.0
318.8377350992984 689.087783454994 0.0
298.8572050252509 708.802647930764 0.0
278.8851758089871 728.5260132643177 0.0
258.9213450275634 748.2575770327114 0.0
238.96541025803552 767.9970368130009 0.0
219.01706907745978 787.7440901822424 0.0
199.07601906289193 807.4984347174922 0.0
179.14195779138825 827.2597679958061 0.0
159.21458284000485 847.0277875942403 0.0
139.29359178579807 866.8021910898508 0.0
119.37868220582345 886.5826760596939 0.0
99.46955167713759 906.3689400808254 0.0
79.56589777679636 926.1606807303017 0.0
59.66741808185587 945.9575955851786 0.0
39.77381016937225 965.7593822225124 0.0
19.884771616401697 985.5657382193591 0.0
0.03365403029437952 985.2688339297209 0.0
0.06458882615433466 965.1613067066667 0.0
0.09288848761391681 945.0537794836126 0.0
0.11863711470717811 924.9462522605584 0.0
0.14191880746817018 904.8387250375042 0.0
0.16281766593094496 884.73119781445 0.0
0.1814177901295539 864.6236705913958 0.0
0.19780328009804912 844.5161433683417 0.0
0.2120582358704831 824.4086161452875 0.0
0.2242667574809081 804.3010889222334 0.0
0.23451294496337693 784.1935616991792 0.0
0.24288089835194276 764.0860344761251 0.0
0.24945471768065866 743.9785072530709 0.0
0.2543185029835781 723.8709800300167 0.0
0.2575563542947546 703.7634528069626 0.0
0.25925237164824255 683.6559255839085 0.0
0.2594906550780965 663.5483983608542 0.0
0.25835530461837153 643.4408711378001 0.0
0.25593042030312324 623.3333439147459 0.0
0.2523001021664069 603.2258166916918 0.0
0.24754845024227867 583.1182894686377 0.0
0.24175956456479442 563.0107622455836 0.0
0.23501754516801035 542.9032350225294 0.0
0.22740649208598293 522.7957077994752 0.0
0.21901050535276367 502.68818057640976 0.0
0.209913685002392 482.58065335329997 0.0
0.20020013106896942 462.4731261302457 0.0
0.1899539435865282 442.3655989071915 0.0
0.17925922258912522 422.2580716841373 0.0
0.16820006811081697 402.1505444610832 0.0
0.15686058018566 382.043017238029 0.0
0.14532485884771026 361.9354900149749 0.0
0.13367700413102349 341.82796279192075 0.0
0.12200111606965512 321.72043556886655 0.0
0.11038129469766025 301.6129083458124 0.0
0.09890164004909408 281.50538112275837 0.0
0.0876462521580116 261.39785389970416 0.0
0.07669923105846783 241.29032667664984 0.0
0.06614467678451791 221.18279945359575 0.0
0.056066689370216735 201.07527223054157 0.0
0.04654936884961949 180.96774500748754 0.0
0.037676815256780995 160.86021778443336 0.0
0.029533128625756307 140.75269056137907 0.0
0.022202408990600626 120.64516333832496 0.0
0.015768756385368937 100.53763611527077 0.0
0.010316270844116442 80.43010889221675 0.0
0.005929052400898151 60.3225816691625 0.0
0.002691201089769259 40.21505444610838 0.0
0.0006868169447848299 20.107527223054134 0.0

CELLS 150 450
2 0 3
2 3 4
2 4 5
2 5 6
2 6 7
2 7 8
2 8 9
2 9 10
2 10 11
2 11 12
2 12 13
2 13 14
2 14 15
2 15 16
2 16 17
2 17 18
2 18 19
2 19 20
2 20 21
2 21 22
2 22 23
2 23 24
2 24 25
2 25 26
2 26 27
2 27 28
2 28 29
2 29 30
2 30 31
2 31 32
2 32 33
2 33 34
2 34 35
2 35 36
2 36 37
2 37 38
2 38 39
2 39 40
2 40 41
2 41 42
2 42 43
2 43 44
2 44 45
2 45 46
2 46 47
2 47 48
2 48 49
2 49 50
2 50 51
2 51 1
2 1 52
2 52 53
2 53 54
2 54 55
2 55 56
2 56 57
2 57 58
2 58 59
2 59 60
2 60 61
2 61 62
2 62 63
2 63 64
2 64 65
2 65 66
2 66 67
2 67 68
2 68 69
2 69 70
2 70 71
2 71 72
2 72 73
2 73 74
2 74 75
2 75 76
2 76 77
2 77 78
2 78 79
2 79 80
2 80 81
2 81 82
2 82 83
2 83 84
2 84 85
2 85 86
2 86 87
2 87 88
2 88 89
2 89 90
2 90 91
2 91 92
2 92 93
2 93 94
2 94 95
2 95 96
2 96 97
2 97 98
2 98 99
2 99 100
2 100 2
2 2 101
2 101 102
2 102 103
2 103 104
2 104 105
2 105 106
2 106 107
2 107 108
2 108 109
2 109 110
2 110 111
2 111 112
2 112 113
2 113 114
2 114 115
2 115 116
2 116 117
2 117 118
2 118 119
2 119 120
2 120 121
2 121 122
2 122 123
2 123 124
2 124 125
2 125 126
2 126 127
2 127 128
2 128 129
2 129 130
2 130 131
2 131 132
2 132 133
2 133 134
2 134 135
2 135 136
2 136 137
2 137 138
2 138 139
2 139 140
2 140 141
2 141 142
2 142 143
2 143 144
2 144 145
2 145 146
2 146 147
2 147 148
2 148 149
2 149 0

CELL_TYPES 150
3
3
3
3
3
3
3
3
3
3
3
3
3
3
3
3
3
3
3
3
3
3
3
3
3
3
3
3
3
3
3
3
3
3
3
3
3
3
3
3
3
3
3
3
3
3
3
3
3
3
3
3
3
3
3
3
3
3
3
3
3
3
3
3
3
3
3
3
3
3
3
3
3
3
3
3
3
3
3
3
3
3
3
3
3
3
3
3
3
3
3
3
3
3
3
3
3
3
3
3
3
3
3
3
3
3
3
3
3
3
3
3
3
3
3
3
3
3
3
3
3
3
3
3
3
3
3
3
3
3
3
3
3
3
3
3
3
3
3
3
3
3
3
3
3
3
3
3
3
3

POINT_DATA 150
SCALARS DISPL_X float 1
LOOKUP_TABLE default
0.0
-0.0006291912454287654
0.0
-1.2583824908569192e-05
-2.516764981713721e-05
-3.775147472570008e-05
-5.033529963427567e-05
-6.291912454285583e-05
-7.550294945143532e-05
-8.808677435999282e-05
-0.00010067059926853715
-0.00011325442417708152
-0.00012583824908562593
-0.00013842207399417024
-0.0001510058989027146
-0.0001635897238112698
-0.00017617354871985
-0.00018875737362843012
-0.00020134119853701025
-0.00021392502344559034
-0.00022650884835417033
-0.0002390926732627504
-0.0002516764981713304
-0.0002642603230799103
-0.0002768441479884902
-0.00028942797289707007
-0.00030201179780565
-0.000314595622714237
-0.0003271794476228517
-0.0003397632725314316
-0.00035234709744001144
-0.0003649309223485913
-0.0003775147472571711
-0.0003900985721657509
-0.00040268239707433074
-0.0004152662219829105
-0.0004278500468914903
-0.00044043387180007
-0.00045301769670864965
-0.00046560152161722945
-0.00047818534652580914
-0.0004907691714343889
-0.0005033529963429686
-0.0005159368212515481
-0.0005285206461601278
-0.0005411044710687074
-0.000553688295977287
-0.0005662721208858667
-0.0005788559457944463
-0.0005914397707030261
-0.0006040235956116059
-0.0006166074205201856
-0.000576749474888268
-0.0005264990821002226
-0.00047840478438783445
-0.00043243129907428226
-0.0003885433434827758
-0.0003467056349365399
-0.0003068828907588226
-0.00026903982827282153
-0.00023314116480173215
-0.0001991516176687598
-0.00016703590419711782
-0.00013675874171000814
-0.00010828484753062047
-8.157893898214735e-05
-5.660573338782662e-05
-3.3329948070870446e-05
-1.171630035447851e-05
8.270492438148986e-06
2.6665712983808203e-05
4.35046439592949e-05
5.8822568041406766e-05
7.265476790693873e-05
8.503652623267704e-05
9.600312569542612e-05
0.00010558984897199014
0.00011383197873918355
0.00012076479767376299
0.00012642358845255217
0.0001308436337523436
0.0001340602162499344
0.00013610861862212197
0.00013702412354570562
0.0001368420136974743
0.0001355975717542226
0.0001333260803927393
0.00013006282228981267
0.00012584308012223333
0.0001207021365667953
0.00011467527430029207
0.00010779777599951322
0.00010010492434124591
9.163200200227776e-05
8.241429165939905e-05
7.248707598939938e-05
6.188563766906646e-05
5.06452593751902e-05
3.880122378455639e-05
2.6388813573954332e-05
1.3443311420172932e-05
-3.9263035343442786e-06
-7.535363051339046e-06
-1.0836990221623632e-05
-1.384099671583745e-05
-1.6557194204619858e-05
-1.899539435861025e-05
-2.116540884844796e-05
-2.3077049344772405e-05
-2.474012751822304e-05
-2.6164455039439287e-05
-2.735984357906065e-05
-2.8336104807726663e-05
-2.9103050396076854e-05
-2.9670492014750785e-05
-3.0048241334388045e-05
-3.0246110025628306e-05
-3.0273909759111266e-05
-3.014145220547669e-05
-2.9858549035364384e-05
-2.943501191941415e-05
-2.8880652528265855e-05
-2.8205282532559358e-05
-2.741871360293455e-05
-2.653075741003135e-05
-2.5551225624489103e-05
-2.448992991694574e-05
-2.3356681958046438e-05
-2.2161293418428298e-05
-2.091357596873128e-05
-1.962334127959532e-05
-1.8300401021660338e-05
-1.6954566865566203e-05
-1.5595650481952745e-05
-1.4233463541459768e-05
-1.2877817714727033e-05
-1.1538524672394312e-05
-1.0225396085101356e-05
-8.948243623487916e-06
-7.716878958193759e-06
-6.541113759858621e-06
-5.430759699122275e-06
-4.3956284466244504e-06
-3.4455316730049034e-06
-2.590281048903407e-06
-1.83968824495971e-06
-1.2035649318135853e-06
-6.917227801047846e-07
-3.1397346047308034e-07
-8.012864355823019e-08

SCALARS DISPL_Y float 1
LOOKUP_TABLE default
0.0
-0.0030332985060185684
-0.0006272421344904268
-2.193595148346817e-06
-8.694358083514922e-06
-1.9382255040691767e-05
-3.413725225508877e-05
-5.283931596189677e-05
-7.536841239630165e-05
-0.0001016045077934471
-0.00013142756838852785
-0.0001647175604167588
-0.0002013544501133285
-0.00024121820371342457
-0.00028418878745223585
-0.0003301461675649919
-0.00037897031028694426
-0.00043054118185319233
-0.0004847387484989266
-0.0005414429764593364
-0.0006005338319696121
-0.000661891281264947
-0.0007253952905805336
-0.0007909258261515626
-0.0008583628542132281
-0.0009275863410007229
-0.00099847625274924
-0.0010709125556940143
-0.001144775216070367
-0.0012199442001131235
-0.0012962994740576795
-0.0013737210041392276
-0.0014520887565929624
-0.0015312826976540798
-0.0016111827935577701
-0.0016916690105392227
-0.0017726213148336301
-0.0018539196726761805
-0.001935444050302063
-0.002017074413946468
-0.002098690729844581
-0.002180172964231588
-0.0022614010833426745
-0.002342255053413026
-0.002422614840677836
-0.002502360411372285
-0.002581371731731553
-0.0026595287679908237
-0.0027367114863852795
-0.002812799853150103
-0.002887673834520472
-0.002961213396731566
-0.002945319432956096
-0.002859531737646066
-0.0027759001374117165
-0.0026943893495761893
-0.0026149640914627298
-0.0025375890803945624
-0.0024622290336949525
-0.0023888486686870704
-0.002317412702694087
-0.0022478858530392133
-0.0021802328370456544
-0.0021144183720366192
-0.0020504071753352916
-0.0019881639642648488
-0.0019276534561485578
-0.001868840368309616
-0.001811689418071228
-0.0017561653227566017
-0.0017022327996889424
-0.001649856566191456
-0.0015990013395873481
-0.001549631837199823
-0.0015017127763520802
-0.0014552088743673274
-0.0014100848485687394
-0.0013663054162794497
-0.0013238352948228749
-0.001282639201522092
-0.0012426818537002973
-0.0012039279686806945
-0.0011663422637864867
-0.0011298894563408868
-0.0010945342636671006
-0.0010602414030883391
-0.001026975591927812
-0.0009947015475087276
-0.0009633839871542926
-0.000932987628187717
-0.0009034771879322114
-0.0008748173837109861
-0.0008469729328472517
-0.0008199085526642175
-0.0007935889604850948
-0.0007679788736330933
-0.0007430430094314214
-0.0007187460852032911
-0.0006950528182719126
-0.0006719279259604999
-0.0006493361255922669
-0.0006146972918006192
-0.0006021524491108116
-0.0005896076064210039
-0.0005770627637311963
-0.0005645179210413886
-0.000551973078351581
-0.0005394282356617734
-0.0005268833929719659
-0.0005143385502821582
-0.0005017937075923507
-0.0004892488649025431
-0.00047670402221273555
-0.00046415917952292795
-0.00045161433683312024
-0.0004390694941433126
-0.0004265246514535049
-0.0004139798087636972
-0.00040143496607388955
-0.0003888901233840819
-0.00037634528069427424
-0.0003638004380044666
-0.0003512555953146589
-0.00033871075262485126
-0.0003261659099350435
-0.0003136210672452287
-0.00030107622455538617
-0.00028853138186557824
-0.00027598653917577037
-0.0002634416964859625
-0.0002508968537961547
-0.000238352011106347
-0.0002258071684165393
-0.00021326232572673156
-0.00020071748303692382
-0.00018817264034711614
-0.00017562779765730845
-0.0001630829549675007
-0.00015053811227769281
-0.00013799326958788505
-0.00012544842689807728
-0.00011290358420826961
-0.00010035874151846184
-8.781389882865402e-05
-7.526905613884634e-05
-6.27242134490386e-05
-5.017937075923097e-05
-3.76345280694232e-05
-2.5089685379615495e-05
-1.2544842689807712e-05

SCALARS DISPL_Z float 1
LOOKUP_TABLE default
0.0
0.0
0.0
0.0
0.0
0.0
0.0
0.0
0.0
0.0
0.0
0.0
0.0
0.0
0.0
0.0
0.0
0.0
0.0
0.0
0.0
0.0
0.0
0.0
0.0
0.0
0.0
0.0
0.0
0.0
0.0
0.0
0.0
0.0
0.0
0.0
0.0
0.0
0.0
0.0
0.0
0.0
0.0
0.0
0.0
0.0
0.0
0.0
0.0
0.0
0.0
0.0
0.0
0.0
0.0
0.0
0.0
0.0
0.0
0.0
0.0
0.0
0.0
0.0
0.0
0.0
0.0
0.0
0.0
0.0
0.0
0.0
0.0
0.0
0.0
0.0
0.0
0.0
0.0
0.0
0.0
0.0
0.0
0.0
0.0
0.0
0.0
0.0
0.0
0.0
0.0
0.0
0.0
0.0
0.0
0.0
0.0
0.0
0.0
0.0
0.0
0.0
0.0
0.0
0.0
0.0
0.0
0.0
0.0
0.0
0.0
0.0
0.0
0.0
0.0
0.0
0.0
0.0
0.0
0.0
0.0
0.0
0.0
0.0
0.0
0.0
0.0
0.0
0.0
0.0
0.0
0.0
0.0
0.0
0.0
0.0
0.0
0.0
0.0
0.0
0.0
0.0
0.0
0.0
0.0
0.0
0.0
0.0
0.0
0.0

SCALARS DISPL_MAG float 1
LOOKUP_TABLE default
0.0
0.003097867242142355
0.0006272421344904268
1.2773586379884747e-05
2.6627100101258267e-05
4.243637183393031e-05
6.081935860233874e-05
8.216331020936632e-05
0.00010668220546560234
0.0001344721377129736
0.00016555293802771233
0.00019989607126036994
0.00023744237093108916
0.00027811309277266815
0.0003218167932488747
0.0003684536466022548
0.0004179181921710614
0.00047010111185855156
0.0005248904004881642
0.0005821721501526347
0.0006418310850393887
0.0007037509322356039
0.000767814682933454
0.0008339047792331151
0.0009019032496717996
0.0009716918089118671
0.0010431519320396071
0.001116164910653459
0.0011906118957392242
0.0012663739308556997
0.001343331978148595
0.0014213669390060687
0.0015003596706857796
0.001580190999892264
0.001660741734036376
0.0017418926707288003
0.0018235246059287377
0.0019055183410727268
0.001987754689437523
0.0020701144819380802
0.0021524785725222885
0.0022347278432947367
0.002316743209479822
0.0023984056243183736
0.0024795960839802144
0.0025601956325667415
0.002640085367272238
0.0027191464437693246
0.0027972600818827534
0.0028743075716162474
0.002950170279599084
0.0030247296560226757
0.0030012574896087657
0.002907597469055424
0.0028168231592713725
0.002728869875155038
0.0026436722810144744
0.0025611644106215575
0.0024812796946355868
0.0024039509959824595
0.0023291106537330986
0.0022566905359649816
0.0021866221020155935
0.0021188364744453717
0.00205326452092057
0.0019898369461055776
0.0019284843935209468
0.0018691375571803237
0.0018117273026714757
0.0017561847971947508
0.0017024416479238839
0.0016504300479120851
0.0016000829286362379
0.0015513341181585963
0.0015041185037931
0.0014583721980964653
0.0014140327069658088
0.001371039098617628
0.0013293321722488902
0.0012888546252384128
0.0012495512178416397
0.001211368934450856
0.0011742571406458675
0.0011381677354343576
0.0011030552982756858
0.0010688772306903967
0.0010355938924734786
0.0010031687327455182
0.0009715684162836671
0.0009407629457643042
0.0009107257807099477
0.0008814339540506571
0.0008528681872676701
0.0008250130050628762
0.0007978568503644835
0.0007713922002018478
0.0007456156825165431
0.0007205281932667429
0.0006961350121599312
0.0006724459139346599
0.0006494752702152068
0.0006147098310637787
0.0006021995962025082
0.000589707189973608
0.0005772287297728469
0.0005647606783911402
0.0005522998318230412
0.0005398433068594032
0.0005273885285025756
0.000514933217238867
0.0005024753761994596
0.0004900132782375367
0.00047754545294607795
0.00046507067363762495
0.00045258794430432675
0.00044009648657374447
0.00042759572667324015
0.00041508528241330134
0.000402564950197853
0.0003900346920674925
0.0003774946227796472
0.00036494499692789345
0.0003523861961010915
0.0003398187160815792
0.0003272431540804251
0.00031466019600666015
0.00030207060376650726
0.0002894752025879755
0.00027687486836510945
0.000264270515016719
0.00025166308185306903
0.00023905352094456535
0.00022644278448626776
0.00021383181215228427
0.00020122151843444546
0.0001886127799601577
0.00017600642278499932
0.0001634032096564479
0.00015080382724611647
0.00013820887334903696
0.00012561884404985445
0.00011303412085730325
0.00010045495781000663
8.78814685585008e-05
7.531361343040917e-05
6.275118648789995e-05
5.019380258893976e-05
3.764088446639795e-05
2.509164984176953e-05
1.25450985931375e-05

