# vtk DataFile Version 2.0
mesh vtk view
ASCII
DATASET UNSTRUCTURED_GRID
POINTS 150 double
0.0 0.0 0.0
997.3034660910196 -12.999850740079575 0.0
0.0 997.3118194236124 0.0
19.946069321810338 -0.009401122064343499 0.0
39.892138643618814 -0.037261534643635366 0.0
59.838207965419144 -0.0830668073172504 0.0
79.78427728723966 -0.1463025096646661 0.0
99.73034660906741 -0.2264542112652718 0.0
119.67641593089412 -0.3230074816984356 0.0
139.62248525268598 -0.4354478905433446 0.0
159.568554574457 -0.5632610073794049 0.0
179.51462389622804 -0.7059324017861089 0.0
199.46069321799916 -0.8629476433428361 0.0
219.40676253977017 -1.033792301628962 0.0
239.3528318615412 -1.2179519462238675 0.0
259.29890118332946 -1.4149121467071077 0.0
279.24497050515737 -1.624158472658332 0.0
299.1910398269851 -1.845176493656538 0.0
319.13710914881295 -2.0774517792811134 0.0
339.0831784706407 -2.320469899111441 0.0
359.0292477924683 -2.5737164227269083 0.0
378.9753171142961 -2.8366769197069153 0.0
398.9213864361239 -3.108836959630857 0.0
418.8674557579517 -3.389682112078124 0.0
438.8135250797794 -3.6786979466281196 0.0
458.7595944016071 -3.9753700328602397 0.0
478.70566372343484 -4.279183940353884 0.0
498.6517330452737 -4.589625238688631 0.0
518.5978023671566 -4.906179497444428 0.0
538.5438716889844 -5.228332286199099 0.0
558.489941010812 -5.55556917453291 0.0
578.4360103326396 -5.8873757320252595 0.0
598.3820796544671 -6.223237528255551 0.0
618.3281489762949 -6.562640132803197 0.0
638.2742182981225 -6.905069115247584 0.0
658.22028761995 -7.2500100451680956 0.0
678.1663569417776 -7.596948492144127 0.0
698.1124262636054 -7.945370025755056 0.0
718.0584955854329 -8.294760215580267 0.0
738.0045649072605 -8.644604631199146 0.0
757.9506342290881 -8.994388842191059 0.0
777.8967035509157 -9.343598418135374 0.0
797.8427728727435 -9.69171892861146 0.0
817.788842194571 -10.038235943198679 0.0
837.7349115163986 -10.382635031476436 0.0
857.6809808382262 -10.724401763024076 0.0
877.6270501600538 -11.063021707420937 0.0
897.5731194818815 -11.397980434246383 0.0
917.519188803709 -11.728763513079766 0.0
937.4652581255366 -12.054856513500438 0.0
957.4113274473643 -12.375745005087735 0.0
977.357396769192 -12.690914557420992 0.0
977.5282165361989 7.377202430182374 0.0
957.7435753624401 27.744863981504338 0.0
937.9496937812183 48.10328512535504 0.0
918.1467230039914 68.45261707322089 0.0
898.3348142422377 88.79301103656724 0.0
878.5141187074335 109.12461822686186 0.0
858.6847876110672 129.44758985555936 0.0
838.8469721646042 149.7620771341392 0.0
819.0008235795058 170.0682312740836 0.0
799.1464930672439 190.3662034868648 0.0
779.2841318392907 210.65614498395456 0.0
759.413891107118 230.93820697682503 0.0
739.5359220821895 251.21254067695665 0.0
719.6503759759656 271.4792972958329 0.0
699.7574039999384 291.7386280449056 0.0
679.8571573655796 311.9906841356468 0.0
659.9497872843613 332.2356167795285 0.0
640.0354449677553 352.47357718802266 0.0
620.1142816272337 372.7047165726013 0.0
600.1864484742687 392.92918614473626 0.0
580.252096720332 413.1471371158996 0.0
560.3113775768957 433.35872069756346 0.0
540.3644422554316 453.5640881011994 0.0
520.411441967412 473.76339053827985 0.0
500.4525279242975 493.9567792202879 0.0
480.4878513375269 514.1444053587292 0.0
460.5175634186722 534.3264201649746 0.0
440.54181537914945 554.5029748505525 0.0
420.5607584304312 574.6742206269347 0.0
400.57454378398916 594.8403087055932 0.0
380.58332265129565 615.0013902979999 0.0
360.5872462438222 635.157616615627 0.0
340.5864657730412 655.3091388699462 0.0
320.58113245042415 675.4561082724297 0.0
300.5713974874433 695.5986760345493 0.0
280.55741209557044 715.736993367777 0.0
260.53932748627784 735.8712114835848 0.0
240.51729487103717 756.0014815934446 0.0
220.49146546132067 776.1279549088283 0.0
200.46199046859996 796.250782641208 0.0
180.42902110434713 816.3701160020557 0.0
160.39270858003414 836.4861062028432 0.0
140.3532041071332 856.5989044550424 0.0
120.31065889711573 876.7086619701256 0.0
100.26522416145416 896.8155299595643 0.0
80.21705111162024 916.9196596348307 0.0
60.16629095908588 937.0212022073969 0.0
40.11309491532309 957.1203088887346 0.0
20.05761419180392 977.2171308903157 0.0
-0.01682701514718976 977.3655830351415 0.0
-0.03229441307716733 957.4193466466705 0.0
-0.046444243806958406 937.4731102581997 0.0
-0.059318557353589055 917.5268738697287 0.0
-0.07095940373408509 897.5806374812578 0.0
-0.08140883296547248 877.6344010927868 0.0
-0.09070889506477695 857.6881647043159 0.0
-0.09890164004902456 837.741928315845 0.0
-0.10602911793524156 817.795691927374 0.0
-0.11213337874045405 797.8494555389032 0.0
-0.11725647248168847 777.9032191504323 0.0
-0.12144044917597138 757.9569827619613 0.0
-0.12472735884032933 738.0107463734904 0.0
-0.12715925149178905 718.0645099850194 0.0
-0.1287781771473773 698.1182735965485 0.0
-0.12962618582412128 678.1720372080777 0.0
-0.12974532753904824 658.2258008196067 0.0
-0.12917765230918576 638.2795644311358 0.0
-0.12796521015156162 618.3333280426649 0.0
-0.12615005108320346 598.387091654194 0.0
-0.12377422512113934 578.4408552657231 0.0
-0.12087978228239721 558.4946188772523 0.0
-0.11750877258400517 538.5483824887814 0.0
-0.11370324604299147 518.6021461003103 0.0
-0.10950525267638184 498.65590971182826 0.0
-0.104956842501196 478.7096733233022 0.0
-0.10010006553448471 458.76343693483113 0.0
-0.0949769717932641 438.81720054636014 0.0
-0.08962961129456261 418.8709641578892 0.0
-0.08410003405540849 398.9247277694183 0.0
-0.07843029009283 378.9784913809474 0.0
-0.07266242942385513 359.03225499247657 0.0
-0.06683850206551174 339.08601860400563 0.0
-0.06100055803482756 319.1397822155347 0.0
-0.05519064734883013 299.19354582706376 0.0
-0.04945082002454704 279.24730943859294 0.0
-0.0438231260790058 259.301073050122 0.0
-0.03834961552923392 239.35483666165095 0.0
-0.033072338392258954 219.40860027318007 0.0
-0.028033344685108368 199.46236388470913 0.0
-0.023274684424809743 179.51612749623837 0.0
-0.018838407628390497 159.56989110776743 0.0
-0.014766564312878153 139.62365471929635 0.0
-0.011101204495300313 119.67741833082552 0.0
-0.007884378192684468 99.73118194235455 0.0
-0.005158135422058221 79.78494555388379 0.0
-0.0029645262004490756 59.83870916541278 0.0
-0.0013456005448846296 39.8924727769419 0.0
-0.00034340847239241497 19.946236388470894 0.0

CELLS 150 450
2 0 3
2 3 4
2 4 5
2 5 6
2 6 7
2 7 8
2 8 9
2 9 10
2 10 11
2 11 12
2 12 13
2 13 14
2 14 15
2 15 16
2 16 17
2 17 18
2 18 19
2 19 20
2 20 21
2 21 22
2 22 23
2 23 24
2 24 25
2 25 26
2 26 27
2 27 28
2 28 29
2 29 30
2 30 31
2 31 32
2 32 33
2 33 34
2 34 35
2 35 36
2 36 37
2 37 38
2 38 39
2 39 40
2 40 41
2 41 42
2 42 43
2 43 44
2 44 45
2 45 46
2 46 47
2 47 48
2 48 49
2 49 50
2 50 51
2 51 1
2 1 52
2 52 53
2 53 54
2 54 55
2 55 56
2 56 57
2 57 58
2 58 59
2 59 60
2 60 61
2 61 62
2 62 63
2 63 64
2 64 65
2 65 66
2 66 67
2 67 68
2 68 69
2 69 70
2 70 71
2 71 72
2 72 73
2 73 74
2 74 75
2 75 76
2 76 77
2 77 78
2 78 79
2 79 80
2 80 81
2 81 82
2 82 83
2 83 84
2 84 85
2 85 86
2 86 87
2 87 88
2 88 89
2 89 90
2 90 91
2 91 92
2 92 93
2 93 94
2 94 95
2 95 96
2 96 97
2 97 98
2 98 99
2 99 100
2 100 2
2 2 101
2 101 102
2 102 103
2 103 104
2 104 105
2 105 106
2 106 107
2 107 108
2 108 109
2 109 110
2 110 111
2 111 112
2 112 113
2 113 114
2 114 115
2 115 116
2 116 117
2 117 118
2 118 119
2 119 120
2 120 121
2 121 122
2 122 123
2 123 124
2 124 125
2 125 126
2 126 127
2 127 128
2 128 129
2 129 130
2 130 131
2 131 132
2 132 133
2 133 134
2 134 135
2 135 136
2 136 137
2 137 138
2 138 139
2 139 140
2 140 141
2 141 142
2 142 143
2 143 144
2 144 145
2 145 146
2 146 147
2 147 148
2 148 149
2 149 0

CELL_TYPES 150
3
3
3
3
3
3
3
3
3
3
3
3
3
3
3
3
3
3
3
3
3
3
3
3
3
3
3
3
3
3
3
3
3
3
3
3
3
3
3
3
3
3
3
3
3
3
3
3
3
3
3
3
3
3
3
3
3
3
3
3
3
3
3
3
3
3
3
3
3
3
3
3
3
3
3
3
3
3
3
3
3
3
3
3
3
3
3
3
3
3
3
3
3
3
3
3
3
3
3
3
3
3
3
3
3
3
3
3
3
3
3
3
3
3
3
3
3
3
3
3
3
3
3
3
3
3
3
3
3
3
3
3
3
3
3
3
3
3
3
3
3
3
3
3
3
3
3
3
3
3

POINT_DATA 150
SCALARS DISPL_X float 1
LOOKUP_TABLE default
0.0
-0.0006291912454287654
0.0
-1.2583824908569192e-05
-2.516764981713721e-05
-3.775147472570008e-05
-5.033529963427567e-05
-6.291912454285583e-05
-7.550294945143532e-05
-8.808677435999282e-05
-0.00010067059926853715
-0.00011325442417708152
-0.00012583824908562593
-0.00013842207399417024
-0.0001510058989027146
-0.0001635897238112698
-0.00017617354871985
-0.00018875737362843012
-0.00020134119853701025
-0.00021392502344559034
-0.00022650884835417033
-0.0002390926732627504
-0.0002516764981713304
-0.0002642603230799103
-0.0002768441479884902
-0.00028942797289707007
-0.00030201179780565
-0.000314595622714237
-0.0003271794476228517
-0.0003397632725314316
-0.00035234709744001144
-0.0003649309223485913
-0.0003775147472571711
-0.0003900985721657509
-0.00040268239707433074
-0.0004152662219829105
-0.0004278500468914903
-0.00044043387180007
-0.00045301769670864965
-0.00046560152161722945
-0.00047818534652580914
-0.0004907691714343889
-0.0005033529963429686
-0.0005159368212515481
-0.0005285206461601278
-0.0005411044710687074
-0.000553688295977287
-0.0005662721208858667
-0.0005788559457944463
-0.0005914397707030261
-0.0006040235956116059
-0.0006166074205201856
-0.000576749474888268
-0.0005264990821002226
-0.00047840478438783445
-0.00043243129907428226
-0.0003885433434827758
-0.0003467056349365399
-0.0003068828907588226
-0.00026903982827282153
-0.00023314116480173215
-0.0001991516176687598
-0.00016703590419711782
-0.00013675874171000814
-0.00010828484753062047
-8.157893898214735e-05
-5.660573338782662e-05
-3.3329948070870446e-05
-1.171630035447851e-05
8.270492438148986e-06
2.6665712983808203e-05
4.35046439592949e-05
5.8822568041406766e-05
7.265476790693873e-05
8.503652623267704e-05
9.600312569542612e-05
0.00010558984897199014
0.00011383197873918355
0.00012076479767376299
0.00012642358845255217
0.0001308436337523436
0.0001340602162499344
0.00013610861862212197
0.00013702412354570562
0.0001368420136974743
0.0001355975717542226
0.0001333260803927393
0.00013006282228981267
0.00012584308012223333
0.0001207021365667953
0.00011467527430029207
0.00010779777599951322
0.00010010492434124591
9.163200200227776e-05
8.241429165939905e-05
7.248707598939938e-05
6.188563766906646e-05
5.06452593751902e-05
3.880122378455639e-05
2.6388813573954332e-05
1.3443311420172932e-05
-3.9263035343442786e-06
-7.535363051339046e-06
-1.0836990221623632e-05
-1.384099671583745e-05
-1.6557194204619858e-05
-1.899539435861025e-05
-2.116540884844796e-05
-2.3077049344772405e-05
-2.474012751822304e-05
-2.6164455039439287e-05
-2.735984357906065e-05
-2.8336104807726663e-05
-2.9103050396076854e-05
-2.9670492014750785e-05
-3.0048241334388045e-05
-3.0246110025628306e-05
-3.0273909759111266e-05
-3.014145220547669e-05
-2.9858549035364384e-05
-2.943501191941415e-05
-2.8880652528265855e-05
-2.8205282532559358e-05
-2.741871360293455e-05
-2.653075741003135e-05
-2.5551225624489103e-05
-2.448992991694574e-05
-2.3356681958046438e-05
-2.2161293418428298e-05
-2.091357596873128e-05
-1.962334127959532e-05
-1.8300401021660338e-05
-1.6954566865566203e-05
-1.5595650481952745e-05
-1.4233463541459768e-05
-1.2877817714727033e-05
-1.1538524672394312e-05
-1.0225396085101356e-05
-8.948243623487916e-06
-7.716878958193759e-06
-6.541113759858621e-06
-5.430759699122275e-06
-4.3956284466244504e-06
-3.4455316730049034e-06
-2.590281048903407e-06
-1.83968824495971e-06
-1.2035649318135853e-06
-6.917227801047846e-07
-3.1397346047308034e-07
-8.012864355823019e-08

SCALARS DISPL_Y float 1
LOOKUP_TABLE default
0.0
-0.0030332985060185684
-0.0006272421344904268
-2.193595148346817e-06
-8.694358083514922e-06
-1.9382255040691767e-05
-3.413725225508877e-05
-5.283931596189677e-05
-7.536841239630165e-05
-0.0001016045077934471
-0.00013142756838852785
-0.0001647175604167588
-0.0002013544501133285
-0.00024121820371342457
-0.00028418878745223585
-0.0003301461675649919
-0.00037897031028694426
-0.00043054118185319233
-0.0004847387484989266
-0.0005414429764593364
-0.0006005338319696121
-0.000661891281264947
-0.0007253952905805336
-0.0007909258261515626
-0.0008583628542132281
-0.0009275863410007229
-0.00099847625274924
-0.0010709125556940143
-0.001144775216070367
-0.0012199442001131235
-0.0012962994740576795
-0.0013737210041392276
-0.0014520887565929624
-0.0015312826976540798
-0.0016111827935577701
-0.0016916690105392227
-0.0017726213148336301
-0.0018539196726761805
-0.001935444050302063
-0.002017074413946468
-0.002098690729844581
-0.002180172964231588
-0.0022614010833426745
-0.002342255053413026
-0.002422614840677836
-0.002502360411372285
-0.002581371731731553
-0.0026595287679908237
-0.0027367114863852795
-0.002812799853150103
-0.002887673834520472
-0.002961213396731566
-0.002945319432956096
-0.002859531737646066
-0.0027759001374117165
-0.0026943893495761893
-0.0026149640914627298
-0.0025375890803945624
-0.0024622290336949525
-0.0023888486686870704
-0.002317412702694087
-0.0022478858530392133
-0.0021802328370456544
-0.0021144183720366192
-0.0020504071753352916
-0.0019881639642648488
-0.0019276534561485578
-0.001868840368309616
-0.001811689418071228
-0.0017561653227566017
-0.0017022327996889424
-0.001649856566191456
-0.0015990013395873481
-0.001549631837199823
-0.0015017127763520802
-0.0014552088743673274
-0.0014100848485687394
-0.0013663054162794497
-0.0013238352948228749
-0.001282639201522092
-0.0012426818537002973
-0.0012039279686806945
-0.0011663422637864867
-0.0011298894563408868
-0.0010945342636671006
-0.0010602414030883391
-0.001026975591927812
-0.0009947015475087276
-0.0009633839871542926
-0.000932987628187717
-0.0009034771879322114
-0.0008748173837109861
-0.0008469729328472517
-0.0008199085526642175
-0.0007935889604850948
-0.0007679788736330933
-0.0007430430094314214
-0.0007187460852032911
-0.0006950528182719126
-0.0006719279259604999
-0.0006493361255922669
-0.0006146972918006192
-0.0006021524491108116
-0.0005896076064210039
-0.0005770627637311963
-0.0005645179210413886
-0.000551973078351581
-0.0005394282356617734
-0.0005268833929719659
-0.0005143385502821582
-0.0005017937075923507
-0.0004892488649025431
-0.00047670402221273555
-0.00046415917952292795
-0.00045161433683312024
-0.0004390694941433126
-0.0004265246514535049
-0.0004139798087636972
-0.00040143496607388955
-0.0003888901233840819
-0.00037634528069427424
-0.0003638004380044666
-0.0003512555953146589
-0.00033871075262485126
-0.0003261659099350435
-0.0003136210672452287
-0.00030107622455538617
-0.00028853138186557824
-0.00027598653917577037
-0.0002634416964859625
-0.0002508968537961547
-0.000238352011106347
-0.0002258071684165393
-0.00021326232572673156
-0.00020071748303692382
-0.00018817264034711614
-0.00017562779765730845
-0.0001630829549675007
-0.00015053811227769281
-0.00013799326958788505
-0.00012544842689807728
-0.00011290358420826961
-0.00010035874151846184
-8.781389882865402e-05
-7.526905613884634e-05
-6.27242134490386e-05
-5.017937075923097e-05
-3.76345280694232e-05
-2.5089685379615495e-05
-1.2544842689807712e-05

SCALARS DISPL_Z float 1
LOOKUP_TABLE default
0.0
0.0
0.0
0.0
0.0
0.0
0.0
0.0
0.0
0.0
0.0
0.0
0.0
0.0
0.0
0.0
0.0
0.0
0.0
0.0
0.0
0.0
0.0
0.0
0.0
0.0
0.0
0.0
0.0
0.0
0.0
0.0
0.0
0.0
0.0
0.0
0.0
0.0
0.0
0.0
0.0
0.0
0.0
0.0
0.0
0.0
0.0
0.0
0.0
0.0
0.0
0.0
0.0
0.0
0.0
0.0
0.0
0.0
0.0
0.0
0.0
0.0
0.0
0.0
0.0
0.0
0.0
0.0
0.0
0.0
0.0
0.0
0.0
0.0
0.0
0.0
0.0
0.0
0.0
0.0
0.0
0.0
0.0
0.0
0.0
0.0
0.0
0.0
0.0
0.0
0.0
0.0
0.0
0.0
0.0
0.0
0.0
0.0
0.0
0.0
0.0
0.0
0.0
0.0
0.0
0.0
0.0
0.0
0.0
0.0
0.0
0.0
0.0
0.0
0.0
0.0
0.0
0.0
0.0
0.0
0.0
0.0
0.0
0.0
0.0
0.0
0.0
0.0
0.0
0.0
0.0
0.0
0.0
0.0
0.0
0.0
0.0
0.0
0.0
0.0
0.0
0.0
0.0
0.0
0.0
0.0
0.0
0.0
0.0
0.0

SCALARS DISPL_MAG float 1
LOOKUP_TABLE default
0.0
0.003097867242142355
0.0006272421344904268
1.2773586379884747e-05
2.6627100101258267e-05
4.243637183393031e-05
6.081935860233874e-05
8.216331020936632e-05
0.00010668220546560234
0.0001344721377129736
0.00016555293802771233
0.00019989607126036994
0.00023744237093108916
0.00027811309277266815
0.0003218167932488747
0.0003684536466022548
0.0004179181921710614
0.00047010111185855156
0.0005248904004881642
0.0005821721501526347
0.0006418310850393887
0.0007037509322356039
0.000767814682933454
0.0008339047792331151
0.0009019032496717996
0.0009716918089118671
0.0010431519320396071
0.001116164910653459
0.0011906118957392242
0.0012663739308556997
0.001343331978148595
0.0014213669390060687
0.0015003596706857796
0.001580190999892264
0.001660741734036376
0.0017418926707288003
0.0018235246059287377
0.0019055183410727268
0.001987754689437523
0.0020701144819380802
0.0021524785725222885
0.0022347278432947367
0.002316743209479822
0.0023984056243183736
0.0024795960839802144
0.0025601956325667415
0.002640085367272238
0.0027191464437693246
0.0027972600818827534
0.0028743075716162474
0.002950170279599084
0.0030247296560226757
0.0030012574896087657
0.002907597469055424
0.0028168231592713725
0.002728869875155038
0.0026436722810144744
0.0025611644106215575
0.0024812796946355868
0.0024039509959824595
0.0023291106537330986
0.0022566905359649816
0.0021866221020155935
0.0021188364744453717
0.00205326452092057
0.0019898369461055776
0.0019284843935209468
0.0018691375571803237
0.0018117273026714757
0.0017561847971947508
0.0017024416479238839
0.0016504300479120851
0.0016000829286362379
0.0015513341181585963
0.0015041185037931
0.0014583721980964653
0.0014140327069658088
0.001371039098617628
0.0013293321722488902
0.0012888546252384128
0.0012495512178416397
0.001211368934450856
0.0011742571406458675
0.0011381677354343576
0.0011030552982756858
0.0010688772306903967
0.0010355938924734786
0.0010031687327455182
0.0009715684162836671
0.0009407629457643042
0.0009107257807099477
0.0008814339540506571
0.0008528681872676701
0.0008250130050628762
0.0007978568503644835
0.0007713922002018478
0.0007456156825165431
0.0007205281932667429
0.0006961350121599312
0.0006724459139346599
0.0006494752702152068
0.0006147098310637787
0.0006021995962025082
0.000589707189973608
0.0005772287297728469
0.0005647606783911402
0.0005522998318230412
0.0005398433068594032
0.0005273885285025756
0.000514933217238867
0.0005024753761994596
0.0004900132782375367
0.00047754545294607795
0.00046507067363762495
0.00045258794430432675
0.00044009648657374447
0.00042759572667324015
0.00041508528241330134
0.000402564950197853
0.0003900346920674925
0.0003774946227796472
0.00036494499692789345
0.0003523861961010915
0.0003398187160815792
0.0003272431540804251
0.00031466019600666015
0.00030207060376650726
0.0002894752025879755
0.00027687486836510945
0.000264270515016719
0.00025166308185306903
0.00023905352094456535
0.00022644278448626776
0.00021383181215228427
0.00020122151843444546
0.0001886127799601577
0.00017600642278499932
0.0001634032096564479
0.00015080382724611647
0.00013820887334903696
0.00012561884404985445
0.00011303412085730325
0.00010045495781000663
8.78814685585008e-05
7.531361343040917e-05
6.275118648789995e-05
5.019380258893976e-05
3.764088446639795e-05
2.509164984176953e-05
1.25450985931375e-05

