# vtk DataFile Version 2.0
mesh vtk view
ASCII
DATASET UNSTRUCTURED_GRID
POINTS 150 double
0.0 0.0 0.0
1009.4378686814315 45.499477590278524 0.0
0.0 1009.4086320173564 0.0
20.188757373618458 0.03290392722520225 0.0
40.37751474723503 0.13041537125272384 0.0
60.56627212084336 0.29073382561037653 0.0
80.75502949447211 0.5120587838263315 0.0
100.9437868681082 0.7925897394284516 0.0
121.13254424174323 1.1305261859445248 0.0
141.321301615343 1.5240676169017064 0.0
161.51005898892166 1.9714135258279177 0.0
181.69881636250034 2.470763406251382 0.0
201.8875737360791 3.0203167516999274 0.0
222.07633110965776 3.6182730557013687 0.0
242.2650884832364 4.2628318117835375 0.0
262.4538458568325 4.952192513474879 0.0
282.64260323046875 5.684554654304164 0.0
302.8313606041048 6.458117727797885 0.0
323.020117977741 7.271081227483899 0.0
343.20887535137706 8.121644646890045 0.0
363.39763272501307 9.008007479544181 0.0
383.58639009864913 9.928369218974206 0.0
403.7751474722853 10.880929358708004 0.0
423.9639048459214 11.863887392273439 0.0
444.15266221955744 12.875442813198422 0.0
464.34141959319345 13.913795115010844 0.0
484.5301769668295 14.9771437912386 0.0
504.71893434047684 16.063688335410212 0.0
524.9076917141688 17.171628241055505 0.0
545.0964490878048 18.29916300169685 0.0
565.2852064614408 19.44449211086519 0.0
585.4739638350768 20.605815062088414 0.0
605.6627212087126 21.781331348894437 0.0
625.8514785823486 22.969240464811197 0.0
646.0402359559846 24.16774190336655 0.0
666.2289933296204 25.37503515808834 0.0
686.4177507032564 26.589319722504452 0.0
706.6065080768924 27.808795090142706 0.0
726.7952654505282 29.031660754530947 0.0
746.9840228241642 30.25611620919702 0.0
767.1727801978002 31.480360947668714 0.0
787.3615375714361 32.70259446347382 0.0
807.5502949450721 33.92101625014012 0.0
827.739052318708 35.133825801195385 0.0
847.9278096923439 36.33922261016754 0.0
868.1165670659799 37.535406170584274 0.0
888.3053244396158 38.72057597597329 0.0
908.4940818132517 39.89293151986236 0.0
928.6828391868876 41.050672295779194 0.0
948.8715965605236 42.191997797251545 0.0
969.0603539341596 43.315107517807085 0.0
989.2491113077955 44.418200950973485 0.0
988.6512421233298 64.17979149433565 0.0
967.8974862315158 82.89297606467846 0.0
947.1760717658408 101.63850206115242 0.0
926.4864694861383 120.41584024361882 0.0
905.8281501522627 139.22446137191986 0.0
885.2005845240667 158.06383620589983 0.0
864.6032433614159 176.93343550539058 0.0
844.0355974241514 195.83273003024698 0.0
823.4971174721105 214.7611905403267 0.0
802.9872742651414 233.7182877954782 0.0
782.5055385630923 252.70349255554933 0.0
762.0513811258111 271.7162755803884 0.0
741.6242727131371 290.75610762985156 0.0
721.2236840849071 309.8224594637978 0.0
700.8490860009894 328.91480184205636 0.0
680.4999492212321 348.0326055244751 0.0
660.1757445054834 367.1753412709022 0.0
639.8759426135911 386.3424798411857 0.0
619.6000143054032 405.53349199517373 0.0
599.347430340768 424.7478484927143 0.0
579.1176614795335 443.98502009365563 0.0
558.9101784815476 463.24447755784576 0.0
538.7244521066585 482.5256916451324 0.0
518.5599531147145 501.828133115364 0.0
498.41615226555194 521.1512727283992 0.0
478.29252031898545 540.4945812441185 0.0
458.1885280349639 559.8575294222728 0.0
438.1036461732788 579.2395880227643 0.0
418.03734549377884 598.6402278054404 0.0
397.9890967563119 618.0589195301495 0.0
377.9583707207261 637.4951339567393 0.0
357.94463814686935 656.9483418450584 0.0
337.9473697945899 676.4180139549545 0.0
317.96603642373555 695.9036210462762 0.0
298.0001087941547 715.4046338788713 0.0
278.0490576656955 734.9205232125881 0.0
258.1123537982062 754.4507598072747 0.0
238.18946795153468 773.9948144227792 0.0
218.27987088552933 793.5521578189495 0.0
198.3830333600379 813.1222607556342 0.0
178.4984261349088 832.7045939926812 0.0
158.62551996999022 852.2986282899388 0.0
138.7637856251305 871.903834407255 0.0
118.91269386017731 891.5196831044781 0.0
99.07171543497931 911.1456451414559 0.0
79.24032110938442 930.7811912780371 0.0
59.417981643240864 950.4257922740695 0.0
39.60416779639682 970.0789188894014 0.0
19.798350328700586 989.7400418838808 0.0
0.05889455301516418 989.2204593770107 0.0
0.11303044577008568 969.0322867366648 0.0
0.1625548533243545 948.844114096319 0.0
0.20761495073756175 928.6559414559732 0.0
0.24835791306929786 908.4677688156274 0.0
0.28493091537915377 888.2795961752815 0.0
0.3174811327267194 868.0914235349358 0.0
0.34615574017158607 847.9032508945901 0.0
0.3711019127733456 827.7150782542442 0.0
0.3924668255915893 807.5269056138984 0.0
0.41039765368590975 787.3387329735527 0.0
0.42504157211589993 767.150560333207 0.0
0.4365457559411528 746.9623876928612 0.0
0.4450573802212618 726.7742150525154 0.0
0.45072362001582067 706.5860424121696 0.0
0.4536916503844246 686.3978697718238 0.0
0.454108646386669 666.2096971314779 0.0
0.45212178308215034 646.0215244911323 0.0
0.44787823553046574 625.8333518507865 0.0
0.4415251787912123 605.6451792104407 0.0
0.43320978792398784 585.457006570095 0.0
0.42307923798839037 565.2688339297492 0.0
0.41128070404401823 545.0806612894035 0.0
0.39796136115047026 524.8924886490576 0.0
0.38326838436733657 504.7043160087005 0.0
0.3673489487541861 484.5161433682989 0.0
0.3503502293706966 464.32797072795296 0.0
0.33241940127642444 444.1397980876072 0.0
0.3137036395309692 423.95162544726134 0.0
0.29435011919392984 403.7634528069156 0.0
0.2745060153249051 383.57528016656977 0.0
0.25431850298349307 363.3871075262241 0.0
0.23393475722929116 343.1989348858783 0.0
0.21350195312189651 323.0107622455325 0.0
0.1931672657209055 302.82258960518675 0.0
0.1730778700859147 282.634416964841 0.0
0.15338094127652033 262.44624432449524 0.0
0.13422365435231873 242.25807168414931 0.0
0.11575318437290638 222.0698990438036 0.0
0.09811670639787931 201.88172640345778 0.0
0.08146139548683413 181.69355376311213 0.0
0.06593442669936676 161.50538112276632 0.0
0.05168297509507355 141.3172084824204 0.0
0.038854215733551106 121.1290358420747 0.0
0.02759532367439565 100.94086320172887 0.0
0.01805347397720378 80.75269056138323 0.0
0.010375841701571768 60.56451792103737 0.0
0.004709601907096205 40.37634528069162 0.0
0.0012019296533734528 20.188172640345755 0.0

CELLS 150 450
2 0 3
2 3 4
2 4 5
2 5 6
2 6 7
2 7 8
2 8 9
2 9 10
2 10 11
2 11 12
2 12 13
2 13 14
2 14 15
2 15 16
2 16 17
2 17 18
2 18 19
2 19 20
2 20 21
2 21 22
2 22 23
2 23 24
2 24 25
2 25 26
2 26 27
2 27 28
2 28 29
2 29 30
2 30 31
2 31 32
2 32 33
2 33 34
2 34 35
2 35 36
2 36 37
2 37 38
2 38 39
2 39 40
2 40 41
2 41 42
2 42 43
2 43 44
2 44 45
2 45 46
2 46 47
2 47 48
2 48 49
2 49 50
2 50 51
2 51 1
2 1 52
2 52 53
2 53 54
2 54 55
2 55 56
2 56 57
2 57 58
2 58 59
2 59 60
2 60 61
2 61 62
2 62 63
2 63 64
2 64 65
2 65 66
2 66 67
2 67 68
2 68 69
2 69 70
2 70 71
2 71 72
2 72 73
2 73 74
2 74 75
2 75 76
2 76 77
2 77 78
2 78 79
2 79 80
2 80 81
2 81 82
2 82 83
2 83 84
2 84 85
2 85 86
2 86 87
2 87 88
2 88 89
2 89 90
2 90 91
2 91 92
2 92 93
2 93 94
2 94 95
2 95 96
2 96 97
2 97 98
2 98 99
2 99 100
2 100 2
2 2 101
2 101 102
2 102 103
2 103 104
2 104 105
2 105 106
2 106 107
2 107 108
2 108 109
2 109 110
2 110 111
2 111 112
2 112 113
2 113 114
2 114 115
2 115 116
2 116 117
2 117 118
2 118 119
2 119 120
2 120 121
2 121 122
2 122 123
2 123 124
2 124 125
2 125 126
2 126 127
2 127 128
2 128 129
2 129 130
2 130 131
2 131 132
2 132 133
2 133 134
2 134 135
2 135 136
2 136 137
2 137 138
2 138 139
2 139 140
2 140 141
2 141 142
2 142 143
2 143 144
2 144 145
2 145 146
2 146 147
2 147 148
2 148 149
2 149 0

CELL_TYPES 150
3
3
3
3
3
3
3
3
3
3
3
3
3
3
3
3
3
3
3
3
3
3
3
3
3
3
3
3
3
3
3
3
3
3
3
3
3
3
3
3
3
3
3
3
3
3
3
3
3
3
3
3
3
3
3
3
3
3
3
3
3
3
3
3
3
3
3
3
3
3
3
3
3
3
3
3
3
3
3
3
3
3
3
3
3
3
3
3
3
3
3
3
3
3
3
3
3
3
3
3
3
3
3
3
3
3
3
3
3
3
3
3
3
3
3
3
3
3
3
3
3
3
3
3
3
3
3
3
3
3
3
3
3
3
3
3
3
3
3
3
3
3
3
3
3
3
3
3
3
3

POINT_DATA 150
SCALARS DISPL_X float 1
LOOKUP_TABLE default
0.0
-0.0006291912454287654
0.0
-1.2583824908569192e-05
-2.516764981713721e-05
-3.775147472570008e-05
-5.033529963427567e-05
-6.291912454285583e-05
-7.550294945143532e-05
-8.808677435999282e-05
-0.00010067059926853715
-0.00011325442417708152
-0.00012583824908562593
-0.00013842207399417024
-0.0001510058989027146
-0.0001635897238112698
-0.00017617354871985
-0.00018875737362843012
-0.00020134119853701025
-0.00021392502344559034
-0.00022650884835417033
-0.0002390926732627504
-0.0002516764981713304
-0.0002642603230799103
-0.0002768441479884902
-0.00028942797289707007
-0.00030201179780565
-0.000314595622714237
-0.0003271794476228517
-0.0003397632725314316
-0.00035234709744001144
-0.0003649309223485913
-0.0003775147472571711
-0.0003900985721657509
-0.00040268239707433074
-0.0004152662219829105
-0.0004278500468914903
-0.00044043387180007
-0.00045301769670864965
-0.00046560152161722945
-0.00047818534652580914
-0.0004907691714343889
-0.0005033529963429686
-0.0005159368212515481
-0.0005285206461601278
-0.0005411044710687074
-0.000553688295977287
-0.0005662721208858667
-0.0005788559457944463
-0.0005914397707030261
-0.0006040235956116059
-0.0006166074205201856
-0.000576749474888268
-0.0005264990821002226
-0.00047840478438783445
-0.00043243129907428226
-0.0003885433434827758
-0.0003467056349365399
-0.0003068828907588226
-0.00026903982827282153
-0.00023314116480173215
-0.0001991516176687598
-0.00016703590419711782
-0.00013675874171000814
-0.00010828484753062047
-8.157893898214735e-05
-5.660573338782662e-05
-3.3329948070870446e-05
-1.171630035447851e-05
8.270492438148986e-06
2.6665712983808203e-05
4.35046439592949e-05
5.8822568041406766e-05
7.265476790693873e-05
8.503652623267704e-05
9.600312569542612e-05
0.00010558984897199014
0.00011383197873918355
0.00012076479767376299
0.00012642358845255217
0.0001308436337523436
0.0001340602162499344
0.00013610861862212197
0.00013702412354570562
0.0001368420136974743
0.0001355975717542226
0.0001333260803927393
0.00013006282228981267
0.00012584308012223333
0.0001207021365667953
0.00011467527430029207
0.00010779777599951322
0.00010010492434124591
9.163200200227776e-05
8.241429165939905e-05
7.248707598939938e-05
6.188563766906646e-05
5.06452593751902e-05
3.880122378455639e-05
2.6388813573954332e-05
1.3443311420172932e-05
-3.9263035343442786e-06
-7.535363051339046e-06
-1.0836990221623632e-05
-1.384099671583745e-05
-1.6557194204619858e-05
-1.899539435861025e-05
-2.116540884844796e-05
-2.3077049344772405e-05
-2.474012751822304e-05
-2.6164455039439287e-05
-2.735984357906065e-05
-2.8336104807726663e-05
-2.9103050396076854e-05
-2.9670492014750785e-05
-3.0048241334388045e-05
-3.0246110025628306e-05
-3.0273909759111266e-05
-3.014145220547669e-05
-2.9858549035364384e-05
-2.943501191941415e-05
-2.8880652528265855e-05
-2.8205282532559358e-05
-2.741871360293455e-05
-2.653075741003135e-05
-2.5551225624489103e-05
-2.448992991694574e-05
-2.3356681958046438e-05
-2.2161293418428298e-05
-2.091357596873128e-05
-1.962334127959532e-05
-1.8300401021660338e-05
-1.6954566865566203e-05
-1.5595650481952745e-05
-1.4233463541459768e-05
-1.2877817714727033e-05
-1.1538524672394312e-05
-1.0225396085101356e-05
-8.948243623487916e-06
-7.716878958193759e-06
-6.541113759858621e-06
-5.430759699122275e-06
-4.3956284466244504e-06
-3.4455316730049034e-06
-2.590281048903407e-06
-1.83968824495971e-06
-1.2035649318135853e-06
-6.917227801047846e-07
-3.1397346047308034e-07
-8.012864355823019e-08

SCALARS DISPL_Y float 1
LOOKUP_TABLE default
0.0
-0.0030332985060185684
-0.0006272421344904268
-2.193595148346817e-06
-8.694358083514922e-06
-1.9382255040691767e-05
-3.413725225508877e-05
-5.283931596189677e-05
-7.536841239630165e-05
-0.0001016045077934471
-0.00013142756838852785
-0.0001647175604167588
-0.0002013544501133285
-0.00024121820371342457
-0.00028418878745223585
-0.0003301461675649919
-0.00037897031028694426
-0.00043054118185319233
-0.0004847387484989266
-0.0005414429764593364
-0.0006005338319696121
-0.000661891281264947
-0.0007253952905805336
-0.0007909258261515626
-0.0008583628542132281
-0.0009275863410007229
-0.00099847625274924
-0.0010709125556940143
-0.001144775216070367
-0.0012199442001131235
-0.0012962994740576795
-0.0013737210041392276
-0.0014520887565929624
-0.0015312826976540798
-0.0016111827935577701
-0.0016916690105392227
-0.0017726213148336301
-0.0018539196726761805
-0.001935444050302063
-0.002017074413946468
-0.002098690729844581
-0.002180172964231588
-0.0022614010833426745
-0.002342255053413026
-0.002422614840677836
-0.002502360411372285
-0.002581371731731553
-0.0026595287679908237
-0.0027367114863852795
-0.002812799853150103
-0.002887673834520472
-0.002961213396731566
-0.002945319432956096
-0.002859531737646066
-0.0027759001374117165
-0.0026943893495761893
-0.0026149640914627298
-0.0025375890803945624
-0.0024622290336949525
-0.0023888486686870704
-0.002317412702694087
-0.0022478858530392133
-0.0021802328370456544
-0.0021144183720366192
-0.0020504071753352916
-0.0019881639642648488
-0.0019276534561485578
-0.001868840368309616
-0.001811689418071228
-0.0017561653227566017
-0.0017022327996889424
-0.001649856566191456
-0.0015990013395873481
-0.001549631837199823
-0.0015017127763520802
-0.0014552088743673274
-0.0014100848485687394
-0.0013663054162794497
-0.0013238352948228749
-0.001282639201522092
-0.0012426818537002973
-0.0012039279686806945
-0.0011663422637864867
-0.0011298894563408868
-0.0010945342636671006
-0.0010602414030883391
-0.001026975591927812
-0.0009947015475087276
-0.0009633839871542926
-0.000932987628187717
-0.0009034771879322114
-0.0008748173837109861
-0.0008469729328472517
-0.0008199085526642175
-0.0007935889604850948
-0.0007679788736330933
-0.0007430430094314214
-0.0007187460852032911
-0.0006950528182719126
-0.0006719279259604999
-0.0006493361255922669
-0.0006146972918006192
-0.0006021524491108116
-0.0005896076064210039
-0.0005770627637311963
-0.0005645179210413886
-0.000551973078351581
-0.0005394282356617734
-0.0005268833929719659
-0.0005143385502821582
-0.0005017937075923507
-0.0004892488649025431
-0.00047670402221273555
-0.00046415917952292795
-0.00045161433683312024
-0.0004390694941433126
-0.0004265246514535049
-0.0004139798087636972
-0.00040143496607388955
-0.0003888901233840819
-0.00037634528069427424
-0.0003638004380044666
-0.0003512555953146589
-0.00033871075262485126
-0.0003261659099350435
-0.0003136210672452287
-0.00030107622455538617
-0.00028853138186557824
-0.00027598653917577037
-0.0002634416964859625
-0.0002508968537961547
-0.000238352011106347
-0.0002258071684165393
-0.00021326232572673156
-0.00020071748303692382
-0.00018817264034711614
-0.00017562779765730845
-0.0001630829549675007
-0.00015053811227769281
-0.00013799326958788505
-0.00012544842689807728
-0.00011290358420826961
-0.00010035874151846184
-8.781389882865402e-05
-7.526905613884634e-05
-6.27242134490386e-05
-5.017937075923097e-05
-3.76345280694232e-05
-2.5089685379615495e-05
-1.2544842689807712e-05

SCALARS DISPL_Z float 1
LOOKUP_TABLE default
0.0
0.0
0.0
0.0
0.0
0.0
0.0
0.0
0.0
0.0
0.0
0.0
0.0
0.0
0.0
0.0
0.0
0.0
0.0
0.0
0.0
0.0
0.0
0.0
0.0
0.0
0.0
0.0
0.0
0.0
0.0
0.0
0.0
0.0
0.0
0.0
0.0
0.0
0.0
0.0
0.0
0.0
0.0
0.0
0.0
0.0
0.0
0.0
0.0
0.0
0.0
0.0
0.0
0.0
0.0
0.0
0.0
0.0
0.0
0.0
0.0
0.0
0.0
0.0
0.0
0.0
0.0
0.0
0.0
0.0
0.0
0.0
0.0
0.0
0.0
0.0
0.0
0.0
0.0
0.0
0.0
0.0
0.0
0.0
0.0
0.0
0.0
0.0
0.0
0.0
0.0
0.0
0.0
0.0
0.0
0.0
0.0
0.0
0.0
0.0
0.0
0.0
0.0
0.0
0.0
0.0
0.0
0.0
0.0
0.0
0.0
0.0
0.0
0.0
0.0
0.0
0.0
0.0
0.0
0.0
0.0
0.0
0.0
0.0
0.0
0.0
0.0
0.0
0.0
0.0
0.0
0.0
0.0
0.0
0.0
0.0
0.0
0.0
0.0
0.0
0.0
0.0
0.0
0.0
0.0
0.0
0.0
0.0
0.0
0.0

SCALARS DISPL_MAG float 1
LOOKUP_TABLE default
0.0
0.003097867242142355
0.0006272421344904268
1.2773586379884747e-05
2.6627100101258267e-05
4.243637183393031e-05
6.081935860233874e-05
8.216331020936632e-05
0.00010668220546560234
0.0001344721377129736
0.00016555293802771233
0.00019989607126036994
0.00023744237093108916
0.00027811309277266815
0.0003218167932488747
0.0003684536466022548
0.0004179181921710614
0.00047010111185855156
0.0005248904004881642
0.0005821721501526347
0.0006418310850393887
0.0007037509322356039
0.000767814682933454
0.0008339047792331151
0.0009019032496717996
0.0009716918089118671
0.0010431519320396071
0.001116164910653459
0.0011906118957392242
0.0012663739308556997
0.001343331978148595
0.0014213669390060687
0.0015003596706857796
0.001580190999892264
0.001660741734036376
0.0017418926707288003
0.0018235246059287377
0.0019055183410727268
0.001987754689437523
0.0020701144819380802
0.0021524785725222885
0.0022347278432947367
0.002316743209479822
0.0023984056243183736
0.0024795960839802144
0.0025601956325667415
0.002640085367272238
0.0027191464437693246
0.0027972600818827534
0.0028743075716162474
0.002950170279599084
0.0030247296560226757
0.0030012574896087657
0.002907597469055424
0.0028168231592713725
0.002728869875155038
0.0026436722810144744
0.0025611644106215575
0.0024812796946355868
0.0024039509959824595
0.0023291106537330986
0.0022566905359649816
0.0021866221020155935
0.0021188364744453717
0.00205326452092057
0.0019898369461055776
0.0019284843935209468
0.0018691375571803237
0.0018117273026714757
0.0017561847971947508
0.0017024416479238839
0.0016504300479120851
0.0016000829286362379
0.0015513341181585963
0.0015041185037931
0.0014583721980964653
0.0014140327069658088
0.001371039098617628
0.0013293321722488902
0.0012888546252384128
0.0012495512178416397
0.001211368934450856
0.0011742571406458675
0.0011381677354343576
0.0011030552982756858
0.0010688772306903967
0.0010355938924734786
0.0010031687327455182
0.0009715684162836671
0.0009407629457643042
0.0009107257807099477
0.0008814339540506571
0.0008528681872676701
0.0008250130050628762
0.0007978568503644835
0.0007713922002018478
0.0007456156825165431
0.0007205281932667429
0.0006961350121599312
0.0006724459139346599
0.0006494752702152068
0.0006147098310637787
0.0006021995962025082
0.000589707189973608
0.0005772287297728469
0.0005647606783911402
0.0005522998318230412
0.0005398433068594032
0.0005273885285025756
0.000514933217238867
0.0005024753761994596
0.0004900132782375367
0.00047754545294607795
0.00046507067363762495
0.00045258794430432675
0.00044009648657374447
0.00042759572667324015
0.00041508528241330134
0.000402564950197853
0.0003900346920674925
0.0003774946227796472
0.00036494499692789345
0.0003523861961010915
0.0003398187160815792
0.0003272431540804251
0.00031466019600666015
0.00030207060376650726
0.0002894752025879755
0.00027687486836510945
0.000264270515016719
0.00025166308185306903
0.00023905352094456535
0.00022644278448626776
0.00021383181215228427
0.00020122151843444546
0.0001886127799601577
0.00017600642278499932
0.0001634032096564479
0.00015080382724611647
0.00013820887334903696
0.00012561884404985445
0.00011303412085730325
0.00010045495781000663
8.78814685585008e-05
7.531361343040917e-05
6.275118648789995e-05
5.019380258893976e-05
3.764088446639795e-05
2.509164984176953e-05
1.25450985931375e-05

