# vtk DataFile Version 2.0
mesh vtk view
ASCII
DATASET UNSTRUCTURED_GRID
POINTS 101 double
-0.007364954245812652 0.0 0.0
2.0 0.0 0.0
0.0199999999999621 7.507765129817372e-05 0.0
0.04736495424566087 0.0002888870751398767 0.0
0.07387327997526252 0.0006243064113814518 0.0
0.09952630726491969 0.00106425899106236 0.0
0.1243273732977771 0.0015917619507196624 0.0
0.14828264878368583 0.0021899901292671163 0.0
0.17140183991146804 0.002842352766504402 0.0
0.19369876675280223 0.003532580545685562 0.0
0.2151918195506528 0.004244820557092318 0.0
0.23590429492350923 0.004963736806737702 0.0
0.2558646146818488 0.005674613955328805 0.0
0.27510643066756296 0.006363462048258005 0.0
0.2936686197734786 0.0070171200881405885 0.0
0.3115951740620266 0.007623356407423879 0.0
0.32893499166318085 0.00817096391968552 0.0
0.345741574877122 0.008649848463962518 0.0
0.36207264262220207 0.009051108606054917 0.0
0.377989665039377 0.009367105423220114 0.0
0.3935573286789358 0.009591520972779195 0.0
0.40884294124198356 0.009719404329431258 0.0
0.4239157853178628 0.00974720426886376 0.0
0.4388464309404797 0.009672787874747346 0.0
0.453706017074295 0.009495444550463715 0.0
0.46856551232814614 0.009215875123882476 0.0
0.4834949652776975 0.008836165941049358 0.0
0.49856275475219813 0.008359748050598763 0.0
0.5138348503067129 0.007791341782870852 0.0
0.5293740928571746 0.007136887223920622 0.0
0.5452395051039135 0.006403461272725606 0.0
0.5614856409127195 0.005599182147870945 0.0
0.5781619822652999 0.004733102375860226 0.0
0.5953123917389234 0.0038150914451358124 0.0
0.6129746277350014 0.0028557094462143893 0.0
0.6311799288564676 0.001866073137544329 0.0
0.6499526729432094 0.0008577159774564734 0.0
0.6693101153235875 -0.00015755625619534857 0.0
0.6892622098391286 -0.001167812576303592 0.0
0.7098115151603505 -0.0021611449045455303 0.0
0.7309531878464539 -0.003125815456772343 0.0
0.752675062522727 -0.004050401658661016 0.0
0.77495781846962 -0.004923936879374096 0.0
0.7977752308492603 -0.005736045316946468 0.0
0.8210945037512979 -0.0064770694356243745 0.0
0.8448766812327447 -0.007138188441565117 0.0
0.8690771315678398 -0.007711526388081391 0.0
0.8936460990253007 -0.008190248623673254 0.0
0.9185293166623099 -0.0085686454339208 0.0
0.9436686728770507 -0.008842201880211537 0.0
0.9690029238034998 -0.009007653002379134 0.0
0.9944684430713114 -0.009063023726621515 0.0
1.0199999999966265 -0.009007653002410248 0.0
1.0455315569219903 -0.00884220188027222 0.0
1.0709970761899463 -0.008568645434009193 0.0
1.0963313271165764 -0.008190248623787231 0.0
1.121470683331514 -0.007711526388218525 0.0
1.1463539009687334 -0.007138188441722792 0.0
1.170922868426415 -0.00647706943579983 0.0
1.1951233187617407 -0.00573604531713678 0.0
1.2189054962434251 -0.004923936879576293 0.0
1.2422247691457078 -0.004050401658872007 0.0
1.2650421815255966 -0.0031258154569890778 0.0
1.2873249374727387 -0.0021611449047650743 0.0
1.309046812149261 -0.0011678125765229933 0.0
1.3301884848356118 -0.0001575562564118363 0.0
1.350737790157076 0.0008577159772454877 0.0
1.3706898846728526 0.0018660731373411877 0.0
1.3900473270534595 0.0028557094460212973 0.0
1.4088200711404213 0.0038150914449546687 0.0
1.4270253722620971 0.004733102375692669 0.0
1.4446876082583724 0.005599182147718253 0.0
1.4618380177321828 0.0064034612725888665 0.0
1.4785143590849374 0.007136887223800566 0.0
1.494760494893905 0.007791341782767906 0.0
1.5106259071407901 0.008359748050513002 0.0
1.526165149691385 0.008836165940980592 0.0
1.5414372452460188 0.009215875123830186 0.0
1.5565050347206257 0.00949544455042709 0.0
1.5714344876702688 0.009672787874725343 0.0
1.5862939829242018 0.009747204268855107 0.0
1.6011535690580887 0.009719404329434503 0.0
1.6160842146807681 0.009591520972792743 0.0
1.6311570587567035 0.00936710542324231 0.0
1.6464426713198044 0.009051108606084036 0.0
1.6620103349594124 0.008649848463996924 0.0
1.677927357376645 0.008170963919723719 0.0
1.694258425121783 0.007623356407464396 0.0
1.7110650083357768 0.007017120088181927 0.0
1.7284048259369806 0.006363462048299201 0.0
1.7463313802255902 0.005674613955369108 0.0
1.7648935693315524 0.00496373680677611 0.0
1.7841353853173008 0.004244820557127802 0.0
1.8040957050756792 0.003532580545717304 0.0
1.8248081804485794 0.002842352766531759 0.0
1.84630123324648 0.0021899901292895766 0.0
1.8685981600878765 0.001591761950736901 0.0
1.8917173512157361 0.001064258991074524 0.0
1.9156726267017388 0.0006243064113890698 0.0
1.9404736927347 0.00028888707514376256 0.0
1.9661267200244683 7.507765129929496e-05 0.0

CELLS 100 300
2 0 2
2 2 3
2 3 4
2 4 5
2 5 6
2 6 7
2 7 8
2 8 9
2 9 10
2 10 11
2 11 12
2 12 13
2 13 14
2 14 15
2 15 16
2 16 17
2 17 18
2 18 19
2 19 20
2 20 21
2 21 22
2 22 23
2 23 24
2 24 25
2 25 26
2 26 27
2 27 28
2 28 29
2 29 30
2 30 31
2 31 32
2 32 33
2 33 34
2 34 35
2 35 36
2 36 37
2 37 38
2 38 39
2 39 40
2 40 41
2 41 42
2 42 43
2 43 44
2 44 45
2 45 46
2 46 47
2 47 48
2 48 49
2 49 50
2 50 51
2 51 52
2 52 53
2 53 54
2 54 55
2 55 56
2 56 57
2 57 58
2 58 59
2 59 60
2 60 61
2 61 62
2 62 63
2 63 64
2 64 65
2 65 66
2 66 67
2 67 68
2 68 69
2 69 70
2 70 71
2 71 72
2 72 73
2 73 74
2 74 75
2 75 76
2 76 77
2 77 78
2 78 79
2 79 80
2 80 81
2 81 82
2 82 83
2 83 84
2 84 85
2 85 86
2 86 87
2 87 88
2 88 89
2 89 90
2 90 91
2 91 92
2 92 93
2 93 94
2 94 95
2 95 96
2 96 97
2 97 98
2 98 99
2 99 100
2 100 1

CELL_TYPES 100
3
3
3
3
3
3
3
3
3
3
3
3
3
3
3
3
3
3
3
3
3
3
3
3
3
3
3
3
3
3
3
3
3
3
3
3
3
3
3
3
3
3
3
3
3
3
3
3
3
3
3
3
3
3
3
3
3
3
3
3
3
3
3
3
3
3
3
3
3
3
3
3
3
3
3
3
3
3
3
3
3
3
3
3
3
3
3
3
3
3
3
3
3
3
3
3
3
3
3
3

POINT_DATA 101
SCALARS MODE3_700.9519_Hz float 1
LOOKUP_TABLE default
0.09118681450882947
0.0
0.0009295498158155557
0.09125693601064871
0.17194138989559998
0.24211752563866326
0.3018456195523431
0.35122073437955076
0.39038123783074025
0.41951665093360097
0.4388743930953513
0.44876556566007236
0.44957009940729364
0.4417418422101094
0.4258146254729908
0.40241127590314535
0.37225952663006556
0.3362233383824324
0.2953693905861641
0.25111848097084255
0.20561646596266256
0.16269096357570562
0.13005623241157516
0.12060917064520164
0.14104640074252445
0.18183052404251954
0.23179405068947723
0.284885748156236
0.3380129956007315
0.3893445356842922
0.43761754145211396
0.481865977848573
0.5213081994526352
0.5552979004957344
0.58330211230909
0.6048914241579987
0.6197358915010641
0.6276035512351726
0.6283600213816724
0.6219684288907779
0.608489336141778
0.588080632926178
0.5609976509681489
0.5275941663325547
0.4883256894815294
0.44375796608272994
0.3945871023280649
0.34168649718283334
0.28622005613700674
0.22993578233921122
0.17600162206852357
0.13146020517385276
0.11152536133645088
0.12913436181892646
0.17260862676025518
0.22620397121191704
0.28245858967885845
0.3380496750468379
0.39117005490412865
0.4406290395314782
0.4855384304692499
0.525192157677721
0.5590165711177802
0.5865491445438971
0.6074294550163418
0.6213956605478821
0.6282834004729654
0.6280256487835765
0.6206528188984243
0.6062928400991003
0.5851712192088566
0.5576113922732329
0.5240360817914851
0.484971103285711
0.44105453413311424
0.39305739517941934
0.341929711109961
0.28890568184874604
0.23575651173351375
0.18543283235797672
0.1436548697217123
0.12118229539431824
0.1282696381178451
0.1594916285155639
0.20182602167624572
0.2471426943059258
0.29140944675391245
0.3323935451355953
0.368633604795372
0.3990407355651612
0.4227365221140091
0.43898222122037955
0.4471455589731115
0.44668394946773293
0.4371350665049449
0.4181105778211253
0.3892909677624317
0.35042035767251717
0.30130072125215007
0.24178515649550936
0.1717700734856661

