# vtk DataFile Version 2.0
mesh vtk view
ASCII
DATASET UNSTRUCTURED_GRID
POINTS 101 double
0.0 0.0 0.0
2.0 0.0 0.0
0.0199999999999621 0.0 0.0
0.03999999999992453 0.0 0.0
0.05999999999988582 0.0 0.0
0.07999999999984331 0.0 0.0
0.09999999999979878 0.0 0.0
0.1199999999997561 0.0 0.0
0.1399999999997203 0.0 0.0
0.1599999999996895 0.0 0.0
0.1799999999996589 0.0 0.0
0.1999999999996283 0.0 0.0
0.2199999999995976 0.0 0.0
0.2399999999995651 0.0 0.0
0.2599999999995205 0.0 0.0
0.2799999999994641 0.0 0.0
0.2999999999994057 0.0 0.0
0.3199999999993473 0.0 0.0
0.339999999999289 0.0 0.0
0.3599999999992305 0.0 0.0
0.3799999999991722 0.0 0.0
0.3999999999991138 0.0 0.0
0.4199999999990554 0.0 0.0
0.4399999999989971 0.0 0.0
0.4599999999989386 0.0 0.0
0.4799999999988803 0.0 0.0
0.4999999999988219 0.0 0.0
0.5199999999987635 0.0 0.0
0.5399999999987051 0.0 0.0
0.5599999999986468 0.0 0.0
0.5799999999985884 0.0 0.0
0.5999999999985299 0.0 0.0
0.6199999999984716 0.0 0.0
0.6399999999984132 0.0 0.0
0.6599999999983549 0.0 0.0
0.6799999999982965 0.0 0.0
0.699999999998238 0.0 0.0
0.7199999999981797 0.0 0.0
0.7399999999981213 0.0 0.0
0.759999999998063 0.0 0.0
0.7799999999980046 0.0 0.0
0.7999999999979461 0.0 0.0
0.8199999999978878 0.0 0.0
0.8399999999978294 0.0 0.0
0.8599999999977711 0.0 0.0
0.8799999999977127 0.0 0.0
0.8999999999976543 0.0 0.0
0.9199999999975959 0.0 0.0
0.9399999999975375 0.0 0.0
0.9599999999974792 0.0 0.0
0.9799999999974208 0.0 0.0
0.9999999999973842 0.0 0.0
1.019999999997415 0.0 0.0
1.039999999997468 0.0 0.0
1.059999999997521 0.0 0.0
1.079999999997573 0.0 0.0
1.099999999997626 0.0 0.0
1.119999999997679 0.0 0.0
1.139999999997732 0.0 0.0
1.159999999997785 0.0 0.0
1.179999999997837 0.0 0.0
1.19999999999789 0.0 0.0
1.219999999997943 0.0 0.0
1.239999999997995 0.0 0.0
1.259999999998048 0.0 0.0
1.279999999998101 0.0 0.0
1.299999999998154 0.0 0.0
1.319999999998206 0.0 0.0
1.339999999998259 0.0 0.0
1.359999999998312 0.0 0.0
1.379999999998365 0.0 0.0
1.399999999998417 0.0 0.0
1.41999999999847 0.0 0.0
1.439999999998523 0.0 0.0
1.459999999998576 0.0 0.0
1.479999999998628 0.0 0.0
1.499999999998681 0.0 0.0
1.519999999998734 0.0 0.0
1.539999999998787 0.0 0.0
1.559999999998839 0.0 0.0
1.579999999998892 0.0 0.0
1.599999999998945 0.0 0.0
1.619999999998998 0.0 0.0
1.63999999999905 0.0 0.0
1.659999999999103 0.0 0.0
1.679999999999156 0.0 0.0
1.699999999999209 0.0 0.0
1.719999999999261 0.0 0.0
1.739999999999314 0.0 0.0
1.759999999999367 0.0 0.0
1.77999999999942 0.0 0.0
1.799999999999472 0.0 0.0
1.819999999999525 0.0 0.0
1.839999999999578 0.0 0.0
1.859999999999631 0.0 0.0
1.879999999999683 0.0 0.0
1.899999999999736 0.0 0.0
1.919999999999789 0.0 0.0
1.939999999999842 0.0 0.0
1.959999999999894 0.0 0.0
1.979999999999947 0.0 0.0

CELLS 100 300
2 0 2
2 2 3
2 3 4
2 4 5
2 5 6
2 6 7
2 7 8
2 8 9
2 9 10
2 10 11
2 11 12
2 12 13
2 13 14
2 14 15
2 15 16
2 16 17
2 17 18
2 18 19
2 19 20
2 20 21
2 21 22
2 22 23
2 23 24
2 24 25
2 25 26
2 26 27
2 27 28
2 28 29
2 29 30
2 30 31
2 31 32
2 32 33
2 33 34
2 34 35
2 35 36
2 36 37
2 37 38
2 38 39
2 39 40
2 40 41
2 41 42
2 42 43
2 43 44
2 44 45
2 45 46
2 46 47
2 47 48
2 48 49
2 49 50
2 50 51
2 51 52
2 52 53
2 53 54
2 54 55
2 55 56
2 56 57
2 57 58
2 58 59
2 59 60
2 60 61
2 61 62
2 62 63
2 63 64
2 64 65
2 65 66
2 66 67
2 67 68
2 68 69
2 69 70
2 70 71
2 71 72
2 72 73
2 73 74
2 74 75
2 75 76
2 76 77
2 77 78
2 78 79
2 79 80
2 80 81
2 81 82
2 82 83
2 83 84
2 84 85
2 85 86
2 86 87
2 87 88
2 88 89
2 89 90
2 90 91
2 91 92
2 92 93
2 93 94
2 94 95
2 95 96
2 96 97
2 97 98
2 98 99
2 99 100
2 100 1

CELL_TYPES 100
3
3
3
3
3
3
3
3
3
3
3
3
3
3
3
3
3
3
3
3
3
3
3
3
3
3
3
3
3
3
3
3
3
3
3
3
3
3
3
3
3
3
3
3
3
3
3
3
3
3
3
3
3
3
3
3
3
3
3
3
3
3
3
3
3
3
3
3
3
3
3
3
3
3
3
3
3
3
3
3
3
3
3
3
3
3
3
3
3
3
3
3
3
3
3
3
3
3
3
3

POINT_DATA 101
SCALARS MODE2_357.5556_Hz float 1
LOOKUP_TABLE default
0.047286102353484766
0.0
0.0004793082099848857
0.04732289249279532
0.09079607896717243
0.13044744030123204
0.16629345773838583
0.19835541971449408
0.22666049192970483
0.25124299903528763
0.27214563402997044
0.28942057331067067
0.303130505257008
0.3133495906637029
0.3201643827907815
0.32367474736673496
0.3239948413615617
0.321254237574437
0.31559932627401455
0.30719519585862326
0.2962283101390978
0.28291049278157593
0.26748505726513716
0.25023648520851965
0.23150603055078986
0.2117172738193954
0.19141821061477587
0.1713494045367726
0.15254655178134377
0.13646189881932477
0.12499592535092693
0.12016009992093138
0.12318804739416565
0.1337548715469426
0.1502801061321636
0.17088535641256222
0.19399791941435293
0.2184616241007869
0.24344940806200918
0.26835741118693857
0.2927276101193405
0.3161984927004184
0.3384749012078226
0.3593097364677153
0.3784928034263513
0.39584395559251817
0.4112088533097836
0.4244563315533143
0.4354767700591346
0.4441810923721761
0.4505001605194831
0.4543844180641611
0.4558036888522922
0.4547470749400612
0.45122292285996396
0.4452588475936952
0.43690182199175076
0.42621835907771893
0.41329483919324195
0.3982380680120258
0.3811762023684398
0.3622602606429601
0.3416665637464795
0.31960066760191974
0.29630371183872767
0.2720627320181373
0.24722754296174537
0.22223853611374536
0.19767221407101615
0.17431323481026575
0.15325603818223776
0.1360009566975483
0.12439244197580805
0.12010782754406896
0.12371289548688717
0.13419176067221472
0.14959461696982387
0.1679735908406134
0.18780591621959375
0.20799910478357247
0.22777381066635924
0.24655662707871953
0.2639071397230031
0.2794725226704446
0.2929599239605213
0.3041196187529446
0.3127345820074011
0.3186139023381833
0.3215885158604762
0.3215083526661086
0.3182403448518977
0.31166695431271246
0.30168500362644024
0.28820466966532154
0.27114854710049324
0.25045071923417916
0.2260557933533335
0.1979178712015664
0.1659994352650392
0.1302701428608854
0.09070555305491611

