# vtk DataFile Version 2.0
mesh vtk view
ASCII
DATASET UNSTRUCTURED_GRID
POINTS 101 double
0.0024549847486042176 0.0 0.0
2.0 0.0 0.0
0.0199999999999621 -2.5025883766057906e-05 0.0
0.03754501525134576 -9.629569171329223e-05 0.0
0.05537557334142692 -0.00020810213712715064 0.0
0.07349123091148452 -0.0003547529970207867 0.0
0.09189087556713935 -0.0005305873169065542 0.0
0.11057245040511285 -0.0007299967097557055 0.0
0.1295327200291377 -0.000947450922168134 0.0
0.14876707774865192 -0.001177526848561854 0.0
0.16826939348266093 -0.0014149401856974396 0.0
0.188031901691668 -0.0016545789355792342 0.0
0.2080451284388472 -0.001891537985109602 0.0
0.22829785644356582 -0.0021211540160860015 0.0
0.2487771267415345 -0.0023390400293801963 0.0
0.2694682753119433 -0.0025411188024746264 0.0
0.2903550027781473 -0.0027236546398951736 0.0
0.3114194750400891 -0.0028832828213208395 0.0
0.33264245245831797 -0.003017036202018306 0.0
0.35400344498584835 -0.003122368474406705 0.0
0.37548089043925104 -0.0031971736575930653 0.0
0.3970523529181572 -0.0032398014431437526 0.0
0.41869473822611963 -0.003249068089621254 0.0
0.4403845230185029 -0.0032242626249157826 0.0
0.46209799430715315 -0.003165148183487905 0.0
0.48381149588912503 -0.003071958374627492 0.0
0.5055016782391967 -0.002945388647016453 0.0
0.5271457484142852 -0.0027865826835329214 0.0
0.5487217165627024 -0.0025971139276236175 0.0
0.5702086357124708 -0.002378962407973541 0.0
0.5915868316301467 -0.0021344870909085355 0.0
0.6128381196938001 -0.001866394049290315 0.0
0.6339460059095288 -0.001577700791953409 0.0
0.6548958694182431 -0.0012716971483786043 0.0
0.6756751240861394 -0.0009519031487381298 0.0
0.6962733570455728 -0.0006220243791814431 0.0
0.7166824423499143 -0.0002859053258188245 0.0
0.7368966282230437 5.25187520651162e-05 0.0
0.7569125967177855 0.000389270858767864 0.0
0.7767294949439671 0.0007203816348485102 0.0
0.7963489373818549 0.0010419384855907812 0.0
0.8157749791563526 0.0013501338862203388 0.0
0.8350140605073103 0.001641312293124699 0.0
0.8540749230473524 0.0019120151056488226 0.0
0.8729684987465955 0.002159023145208125 0.0
0.8917077729193688 0.002379396147188373 0.0
0.9103076228075925 0.0025705087960271305 0.0
0.9287846336550276 0.0027300828745577517 0.0
0.9471568944426133 0.0028562151446402673 0.0
0.9654437757042887 0.002947400626737179 0.0
0.9836656920620611 0.003002551000793045 0.0
1.001843852306075 0.0030210079088738386 0.0
1.0199999999976779 0.0030025510008034164 0.0
1.038156147689294 0.002947400626757407 0.0
1.0563343079333791 0.0028562151446697315 0.0
1.0745562242912383 0.0027300828745957435 0.0
1.0928431055529966 0.0025705087960728418 0.0
1.111215366340661 0.002379396147240931 0.0
1.1296923771881708 0.00215902314526661 0.0
1.1482922270764664 0.0019120151057122603 0.0
1.1670315012493075 0.0016413122931920978 0.0
1.1859250769486176 0.001350133886290669 0.0
1.204985939488725 0.001041938485663026 0.0
1.224225020839747 0.0007203816349216916 0.0
1.2436510626143102 0.00038927085884099777 0.0
1.2632705050522641 5.251875213727878e-05 0.0
1.2830874032785133 -0.0002859053257484959 0.0
1.3031033717733238 -0.0006220243791137292 0.0
1.3233175576465255 -0.0009519031486737658 0.0
1.343726642950942 -0.001271697148318223 0.0
1.3643248759104543 -0.0015777007918975564 0.0
1.3851041305784317 -0.0018663940492394178 0.0
1.4060539940872325 -0.0021344870908629556 0.0
1.4271618803030515 -0.002378962407933522 0.0
1.4484131683667996 -0.002597113927589302 0.0
1.469791364284574 -0.0027865826835043344 0.0
1.4912782834344465 -0.002945388646993531 0.0
1.5128542515829724 -0.0030719583746100622 0.0
1.534498321758174 -0.003165148183475697 0.0
1.5561885041083623 -0.0032242626249084478 0.0
1.5779020056904556 -0.0032490680896183695 0.0
1.5996154769792303 -0.0032398014431448347 0.0
1.6213052617717414 -0.003197173657597581 0.0
1.642947647079832 -0.0031223684744141034 0.0
1.6645191095588694 -0.0030170362020280122 0.0
1.6859965550124039 -0.002883282821332308 0.0
1.7073575475400637 -0.0027236546399079064 0.0
1.7285805249584203 -0.002541118802488132 0.0
1.7496449972204933 -0.0023390400293939757 0.0
1.770531724686829 -0.002121154016099734 0.0
1.7912228732573634 -0.001891537985123036 0.0
1.8117021435554452 -0.0016545789355920369 0.0
1.8319548715602665 -0.0014149401857092674 0.0
1.8519680983075442 -0.0011775268485724347 0.0
1.8717306065166484 -0.000947450922177253 0.0
1.8912329222507507 -0.0007299967097631923 0.0
1.9104672799703557 -0.0005305873169123003 0.0
1.9294275495944733 -0.0003547529970248414 0.0
1.9481091244325432 -0.00020810213712968995 0.0
1.966508769088292 -9.629569171458753e-05 0.0
1.9846244266584399 -2.5025883766431654e-05 0.0

CELLS 100 300
2 0 2
2 2 3
2 3 4
2 4 5
2 5 6
2 6 7
2 7 8
2 8 9
2 9 10
2 10 11
2 11 12
2 12 13
2 13 14
2 14 15
2 15 16
2 16 17
2 17 18
2 18 19
2 19 20
2 20 21
2 21 22
2 22 23
2 23 24
2 24 25
2 25 26
2 26 27
2 27 28
2 28 29
2 29 30
2 30 31
2 31 32
2 32 33
2 33 34
2 34 35
2 35 36
2 36 37
2 37 38
2 38 39
2 39 40
2 40 41
2 41 42
2 42 43
2 43 44
2 44 45
2 45 46
2 46 47
2 47 48
2 48 49
2 49 50
2 50 51
2 51 52
2 52 53
2 53 54
2 54 55
2 55 56
2 56 57
2 57 58
2 58 59
2 59 60
2 60 61
2 61 62
2 62 63
2 63 64
2 64 65
2 65 66
2 66 67
2 67 68
2 68 69
2 69 70
2 70 71
2 71 72
2 72 73
2 73 74
2 74 75
2 75 76
2 76 77
2 77 78
2 78 79
2 79 80
2 80 81
2 81 82
2 82 83
2 83 84
2 84 85
2 85 86
2 86 87
2 87 88
2 88 89
2 89 90
2 90 91
2 91 92
2 92 93
2 93 94
2 94 95
2 95 96
2 96 97
2 97 98
2 98 99
2 99 100
2 100 1

CELL_TYPES 100
3
3
3
3
3
3
3
3
3
3
3
3
3
3
3
3
3
3
3
3
3
3
3
3
3
3
3
3
3
3
3
3
3
3
3
3
3
3
3
3
3
3
3
3
3
3
3
3
3
3
3
3
3
3
3
3
3
3
3
3
3
3
3
3
3
3
3
3
3
3
3
3
3
3
3
3
3
3
3
3
3
3
3
3
3
3
3
3
3
3
3
3
3
3
3
3
3
3
3
3

POINT_DATA 101
SCALARS MODE3_700.9519_Hz float 1
LOOKUP_TABLE default
0.09118681450882947
0.0
0.0009295498158155557
0.09125693601064871
0.17194138989559998
0.24211752563866326
0.3018456195523431
0.35122073437955076
0.39038123783074025
0.41951665093360097
0.4388743930953513
0.44876556566007236
0.44957009940729364
0.4417418422101094
0.4258146254729908
0.40241127590314535
0.37225952663006556
0.3362233383824324
0.2953693905861641
0.25111848097084255
0.20561646596266256
0.16269096357570562
0.13005623241157516
0.12060917064520164
0.14104640074252445
0.18183052404251954
0.23179405068947723
0.284885748156236
0.3380129956007315
0.3893445356842922
0.43761754145211396
0.481865977848573
0.5213081994526352
0.5552979004957344
0.58330211230909
0.6048914241579987
0.6197358915010641
0.6276035512351726
0.6283600213816724
0.6219684288907779
0.608489336141778
0.588080632926178
0.5609976509681489
0.5275941663325547
0.4883256894815294
0.44375796608272994
0.3945871023280649
0.34168649718283334
0.28622005613700674
0.22993578233921122
0.17600162206852357
0.13146020517385276
0.11152536133645088
0.12913436181892646
0.17260862676025518
0.22620397121191704
0.28245858967885845
0.3380496750468379
0.39117005490412865
0.4406290395314782
0.4855384304692499
0.525192157677721
0.5590165711177802
0.5865491445438971
0.6074294550163418
0.6213956605478821
0.6282834004729654
0.6280256487835765
0.6206528188984243
0.6062928400991003
0.5851712192088566
0.5576113922732329
0.5240360817914851
0.484971103285711
0.44105453413311424
0.39305739517941934
0.341929711109961
0.28890568184874604
0.23575651173351375
0.18543283235797672
0.1436548697217123
0.12118229539431824
0.1282696381178451
0.1594916285155639
0.20182602167624572
0.2471426943059258
0.29140944675391245
0.3323935451355953
0.368633604795372
0.3990407355651612
0.4227365221140091
0.43898222122037955
0.4471455589731115
0.44668394946773293
0.4371350665049449
0.4181105778211253
0.3892909677624317
0.35042035767251717
0.30130072125215007
0.24178515649550936
0.1717700734856661

