# vtk DataFile Version 2.0
mesh vtk view
ASCII
DATASET UNSTRUCTURED_GRID
POINTS 101 double
0.0009235233818626603 0.0 0.0
2.0 0.0 0.0
0.0199999999999621 9.361150888071839e-06 0.0
0.04092352338176876 3.6437310497851866e-05 0.0
0.0617715042135148 7.971797781666444e-05 0.0
0.08254398604422777 0.00013769414046231902 0.0
0.10324107932416296 0.00020885991131342472 0.0
0.12386299078712011 0.00029171472410795957 0.0
0.14441004996595283 0.00038476603074717665 0.0
0.1648827328492813 0.00048653244324732325 0.0
0.18528168269211145 0.0005955472635895506 0.0
0.20560772799858715 0.0007103623451452507 0.0
0.22586189770144352 0.0008295522299148103 0.0
0.24604543356978126 0.00095171850652526 0.0
0.2661597998843683 0.0010754943347966014 0.0
0.2862066904277975 0.0011995490837166149 0.0
0.30618803284518814 0.0013225930308649399 0.0
0.32610599043988425 0.0014433820727052366 0.0
0.34596296147752953 0.0015607223967205076 0.0
0.36576157608076043 0.0016734750681010012 0.0
0.38550469080571476 0.0017805604856067254 0.0
0.40519538100037517 0.0018809626633130472 0.0
0.42483693105333886 0.0019737332972034824 0.0
0.44443282264992484 0.0020579955779920314 0.0
0.46398672116046846 0.002132947714130157 0.0
0.48350246029314675 0.0021978661316709746 0.0
0.5029840251506444 0.002252108320514488 0.0
0.5224355338363772 0.002295115299530531 0.0
0.5418612177617251 0.0023264136761369115 0.0
0.561265400810787 0.0023456172790847787 0.0
0.5806524775234664 0.0023524283464558915 0.0
0.6000268904612124 0.0023466382541911593 0.0
0.6193931069224193 0.0023281277738295796 0.0
0.6387555951763103 0.002296866851524132 0.0
0.6581188003850728 0.002252913903798304 0.0
0.6774871203840421 0.002196414628895706 0.0
0.6968648814888571 0.0021276003359371088 0.0
0.7162563144967031 0.002046785797416 0.0
0.7356655310460457 0.0019543666338170023 0.0
0.7550965004956262 0.0018508162423130129 0.0
0.7745530274789567 0.0017366822845692122 0.0
0.7940387302851526 0.0016125827516374756 0.0
0.8135570202106732 0.0014792016267467963 0.0
0.8331110820194627 0.0013372841694677027 0.0
0.8527038556411194 0.0011876318472363603 0.0
0.8723380192281083 0.0010310969425524222 0.0
0.8920159736837338 0.0008685768663005853 0.0
0.911739828762636 0.000701008209576646 0.0
0.9315113908350452 0.0005293605681137326 0.0
0.9513321523949569 0.00035463017489313755 0.0
0.9712032833808738 0.0001778333777783218 0.0
0.9911256243658434 2.2631605227983953e-14 0.0
1.0110996816612081 -0.0001778333777338108 0.0
1.0311256243659122 -0.0003546301748500607 0.0
1.0512032833809442 -0.0005293605680723583 0.0
1.0713321523950072 -0.0007010082095372164 0.0
1.0915113908350775 -0.0008685768662633345 0.0
1.1117398287626512 -0.0010310969425175484 0.0
1.1320159736837325 -0.0011876318472040332 0.0
1.152338019228092 -0.001337284169438067 0.0
1.1727038556410883 -0.0014792016267199557 0.0
1.1931110820194193 -0.0016125827516135184 0.0
1.2135570202106185 -0.00173668228454819 0.0
1.234038730285087 -0.001850816242294946 0.0
1.254553027478882 -0.001954366633801894 0.0
1.2750965004955441 -0.002046785797403823 0.0
1.295665531045957 -0.0021276003359278167 0.0
1.3162563144966073 -0.0021964146288892326 0.0
1.3368648814887565 -0.0022529139037945653 0.0
1.3574871203839372 -0.0022968668515230225 0.0
1.3781188003849647 -0.0023281277738309786 0.0
1.3987555951761994 -0.0023466382541949176 0.0
1.419393106922307 -0.002352428346461854 0.0
1.440026890461099 -0.0023456172790927766 0.0
1.460652477523353 -0.0023264136761467604 0.0
1.4812654008106736 -0.0022951152995420313 0.0
1.5018612177616135 -0.0022521083205274224 0.0
1.522435533836268 -0.002197866131685112 0.0
1.5429840251505387 -0.002132947714145256 0.0
1.563502460293044 -0.0020579955780078464 0.0
1.5839867211603704 -0.001973733297219758 0.0
1.6044328226498312 -0.001880962663329533 0.0
1.6248369310532502 -0.0017805604856231754 0.0
1.64519538100029 -0.0016734750681171953 0.0
1.6655046908056337 -0.0015607223967362218 0.0
1.6857615760806828 -0.0014433820727202825 0.0
1.7059629614774545 -0.0013225930308791562 0.0
1.7261059904398086 -0.0011995490837298796 0.0
1.7461880328451131 -0.0010754943348087987 0.0
1.7662066904277225 -0.0009517185065363688 0.0
1.786159799884294 -0.000829552229924837 0.0
1.8060454335697178 -0.0007103623451541649 0.0
1.8258618977014034 -0.0005955472635973204 0.0
1.8456077279985708 -0.0004865324432539473 0.0
1.8652816826921186 -0.00038476603075266976 0.0
1.8848827328493103 -0.00029171472411234245 0.0
1.904410049966003 -0.00020885991131673409 0.0
1.923862990787186 -0.00013769414046464518 0.0
1.9432410793242367 -7.971797781813553e-05 0.0
1.9625439860443057 -3.643731049862086e-05 0.0
1.981771504213599 -9.361150888300204e-06 0.0

CELLS 100 300
2 0 2
2 2 3
2 3 4
2 4 5
2 5 6
2 6 7
2 7 8
2 8 9
2 9 10
2 10 11
2 11 12
2 12 13
2 13 14
2 14 15
2 15 16
2 16 17
2 17 18
2 18 19
2 19 20
2 20 21
2 21 22
2 22 23
2 23 24
2 24 25
2 25 26
2 26 27
2 27 28
2 28 29
2 29 30
2 30 31
2 31 32
2 32 33
2 33 34
2 34 35
2 35 36
2 36 37
2 37 38
2 38 39
2 39 40
2 40 41
2 41 42
2 42 43
2 43 44
2 44 45
2 45 46
2 46 47
2 47 48
2 48 49
2 49 50
2 50 51
2 51 52
2 52 53
2 53 54
2 54 55
2 55 56
2 56 57
2 57 58
2 58 59
2 59 60
2 60 61
2 61 62
2 62 63
2 63 64
2 64 65
2 65 66
2 66 67
2 67 68
2 68 69
2 69 70
2 70 71
2 71 72
2 72 73
2 73 74
2 74 75
2 75 76
2 76 77
2 77 78
2 78 79
2 79 80
2 80 81
2 81 82
2 82 83
2 83 84
2 84 85
2 85 86
2 86 87
2 87 88
2 88 89
2 89 90
2 90 91
2 91 92
2 92 93
2 93 94
2 94 95
2 95 96
2 96 97
2 97 98
2 98 99
2 99 100
2 100 1

CELL_TYPES 100
3
3
3
3
3
3
3
3
3
3
3
3
3
3
3
3
3
3
3
3
3
3
3
3
3
3
3
3
3
3
3
3
3
3
3
3
3
3
3
3
3
3
3
3
3
3
3
3
3
3
3
3
3
3
3
3
3
3
3
3
3
3
3
3
3
3
3
3
3
3
3
3
3
3
3
3
3
3
3
3
3
3
3
3
3
3
3
3
3
3
3
3
3
3
3
3
3
3
3
3

POINT_DATA 101
SCALARS MODE2_357.5556_Hz float 1
LOOKUP_TABLE default
0.047286102353484766
0.0
0.0004793082099848857
0.04732289249279532
0.09079607896717243
0.13044744030123204
0.16629345773838583
0.19835541971449408
0.22666049192970483
0.25124299903528763
0.27214563402997044
0.28942057331067067
0.303130505257008
0.3133495906637029
0.3201643827907815
0.32367474736673496
0.3239948413615617
0.321254237574437
0.31559932627401455
0.30719519585862326
0.2962283101390978
0.28291049278157593
0.26748505726513716
0.25023648520851965
0.23150603055078986
0.2117172738193954
0.19141821061477587
0.1713494045367726
0.15254655178134377
0.13646189881932477
0.12499592535092693
0.12016009992093138
0.12318804739416565
0.1337548715469426
0.1502801061321636
0.17088535641256222
0.19399791941435293
0.2184616241007869
0.24344940806200918
0.26835741118693857
0.2927276101193405
0.3161984927004184
0.3384749012078226
0.3593097364677153
0.3784928034263513
0.39584395559251817
0.4112088533097836
0.4244563315533143
0.4354767700591346
0.4441810923721761
0.4505001605194831
0.4543844180641611
0.4558036888522922
0.4547470749400612
0.45122292285996396
0.4452588475936952
0.43690182199175076
0.42621835907771893
0.41329483919324195
0.3982380680120258
0.3811762023684398
0.3622602606429601
0.3416665637464795
0.31960066760191974
0.29630371183872767
0.2720627320181373
0.24722754296174537
0.22223853611374536
0.19767221407101615
0.17431323481026575
0.15325603818223776
0.1360009566975483
0.12439244197580805
0.12010782754406896
0.12371289548688717
0.13419176067221472
0.14959461696982387
0.1679735908406134
0.18780591621959375
0.20799910478357247
0.22777381066635924
0.24655662707871953
0.2639071397230031
0.2794725226704446
0.2929599239605213
0.3041196187529446
0.3127345820074011
0.3186139023381833
0.3215885158604762
0.3215083526661086
0.3182403448518977
0.31166695431271246
0.30168500362644024
0.28820466966532154
0.27114854710049324
0.25045071923417916
0.2260557933533335
0.1979178712015664
0.1659994352650392
0.1302701428608854
0.09070555305491611

