# vtk DataFile Version 2.0
mesh vtk view
ASCII
DATASET UNSTRUCTURED_GRID
POINTS 101 double
-0.0009235233818626603 0.0 0.0
2.0 0.0 0.0
0.0199999999999621 -9.361150888071839e-06 0.0
0.03907647661808031 -3.6437310497851866e-05 0.0
0.058228495786256836 -7.971797781666444e-05 0.0
0.07745601395545884 -0.00013769414046231902 0.0
0.0967589206754346 -0.00020885991131342472 0.0
0.11613700921239208 -0.00029171472410795957 0.0
0.13558995003348775 -0.00038476603074717665 0.0
0.15511726715009772 -0.00048653244324732325 0.0
0.17471831730720636 -0.0005955472635895506 0.0
0.19439227200066947 -0.0007103623451452507 0.0
0.21413810229775168 -0.0008295522299148103 0.0
0.23395456642934892 -0.00095171850652526 0.0
0.25384020011467273 -0.0010754943347966014 0.0
0.27379330957113074 -0.0011995490837166149 0.0
0.29381196715362323 -0.0013225930308649399 0.0
0.31389400955881036 -0.0014433820727052366 0.0
0.33403703852104843 -0.0015607223967205076 0.0
0.35423842391770055 -0.0016734750681010012 0.0
0.3744953091926297 -0.0017805604856067254 0.0
0.3948046189978524 -0.0018809626633130472 0.0
0.41516306894477195 -0.0019737332972034824 0.0
0.4355671773480693 -0.0020579955779920314 0.0
0.4560132788374087 -0.002132947714130157 0.0
0.4764975397046139 -0.0021978661316709746 0.0
0.4970159748469994 -0.002252108320514488 0.0
0.5175644661611497 -0.002295115299530531 0.0
0.538138782235685 -0.0023264136761369115 0.0
0.5587345991865066 -0.0023456172790847787 0.0
0.5793475224737105 -0.0023524283464558915 0.0
0.5999731095358475 -0.0023466382541911593 0.0
0.6206068930745238 -0.0023281277738295796 0.0
0.641244404820516 -0.002296866851524132 0.0
0.661881199611637 -0.002252913903798304 0.0
0.6825128796125509 -0.002196414628895706 0.0
0.703135118507619 -0.0021276003359371088 0.0
0.7237436854996562 -0.002046785797416 0.0
0.7443344689501968 -0.0019543666338170023 0.0
0.7649034995004999 -0.0018508162423130129 0.0
0.7854469725170525 -0.0017366822845692122 0.0
0.8059612697107397 -0.0016125827516374756 0.0
0.8264429797851023 -0.0014792016267467963 0.0
0.846888917976196 -0.0013372841694677027 0.0
0.8672961443544228 -0.0011876318472363603 0.0
0.8876619807673172 -0.0010310969425524222 0.0
0.9079840263115749 -0.0008685768663005853 0.0
0.9282601712325557 -0.000701008209576646 0.0
0.9484886091600297 -0.0005293605681137326 0.0
0.9686678476000015 -0.00035463017489313755 0.0
0.9887967166139678 -0.0001778333777783218 0.0
1.0088743756289251 -2.2631605227983953e-14 0.0
1.0289003183336218 0.0001778333777338108 0.0
1.048874375629024 0.0003546301748500607 0.0
1.0687967166140977 0.0005293605680723583 0.0
1.0886678476001386 0.0007010082095372164 0.0
1.1084886091601744 0.0008685768662633345 0.0
1.128260171232707 0.0010310969425175484 0.0
1.1479840263117314 0.0011876318472040332 0.0
1.167661980767478 0.001337284169438067 0.0
1.1872961443545857 0.0014792016267199557 0.0
1.2068889179763609 0.0016125827516135184 0.0
1.2264429797852674 0.00173668228454819 0.0
1.2459612697109028 0.001850816242294946 0.0
1.265446972517214 0.001954366633801894 0.0
1.284903499500658 0.002046785797403823 0.0
1.3043344689503509 0.0021276003359278167 0.0
1.3237436854998046 0.0021964146288892326 0.0
1.3431351185077616 0.0022529139037945653 0.0
1.3625128796126866 0.0022968668515230225 0.0
1.3818811996117653 0.0023281277738309786 0.0
1.4012444048206345 0.0023466382541949176 0.0
1.4206068930746332 0.002352428346461854 0.0
1.4399731095359467 0.0023456172790927766 0.0
1.459347522473799 0.0023264136761467604 0.0
1.4787345991865823 0.0022951152995420313 0.0
1.4981387822357486 0.0022521083205274224 0.0
1.5175644661611998 0.002197866131685112 0.0
1.5370159748470353 0.002132947714145256 0.0
1.556497539704634 0.0020579955780078464 0.0
1.5760132788374137 0.001973733297219758 0.0
1.5955671773480586 0.001880962663329533 0.0
1.6151630689447458 0.0017805604856231754 0.0
1.63480461899781 0.0016734750681171953 0.0
1.6544953091925725 0.0015607223967362218 0.0
1.6742384239176291 0.0014433820727202825 0.0
1.6940370385209635 0.0013225930308791562 0.0
1.7138940095587134 0.0011995490837298796 0.0
1.733811967153515 0.0010754943348087987 0.0
1.7537933095710114 0.0009517185065363688 0.0
1.7738402001145461 0.000829552229924837 0.0
1.7939545664292262 0.0007103623451541649 0.0
1.8141381022976468 0.0005955472635973204 0.0
1.8343922720005852 0.0004865324432539473 0.0
1.8547183173071435 0.00038476603075266976 0.0
1.8751172671500558 0.00029171472411234245 0.0
1.8955899500334688 0.00020885991131673409 0.0
1.916137009212392 0.00013769414046464518 0.0
1.9367589206754474 7.971797781813553e-05 0.0
1.9574560139554824 3.643731049862086e-05 0.0
1.9782284957862948 9.361150888300204e-06 0.0

CELLS 100 300
2 0 2
2 2 3
2 3 4
2 4 5
2 5 6
2 6 7
2 7 8
2 8 9
2 9 10
2 10 11
2 11 12
2 12 13
2 13 14
2 14 15
2 15 16
2 16 17
2 17 18
2 18 19
2 19 20
2 20 21
2 21 22
2 22 23
2 23 24
2 24 25
2 25 26
2 26 27
2 27 28
2 28 29
2 29 30
2 30 31
2 31 32
2 32 33
2 33 34
2 34 35
2 35 36
2 36 37
2 37 38
2 38 39
2 39 40
2 40 41
2 41 42
2 42 43
2 43 44
2 44 45
2 45 46
2 46 47
2 47 48
2 48 49
2 49 50
2 50 51
2 51 52
2 52 53
2 53 54
2 54 55
2 55 56
2 56 57
2 57 58
2 58 59
2 59 60
2 60 61
2 61 62
2 62 63
2 63 64
2 64 65
2 65 66
2 66 67
2 67 68
2 68 69
2 69 70
2 70 71
2 71 72
2 72 73
2 73 74
2 74 75
2 75 76
2 76 77
2 77 78
2 78 79
2 79 80
2 80 81
2 81 82
2 82 83
2 83 84
2 84 85
2 85 86
2 86 87
2 87 88
2 88 89
2 89 90
2 90 91
2 91 92
2 92 93
2 93 94
2 94 95
2 95 96
2 96 97
2 97 98
2 98 99
2 99 100
2 100 1

CELL_TYPES 100
3
3
3
3
3
3
3
3
3
3
3
3
3
3
3
3
3
3
3
3
3
3
3
3
3
3
3
3
3
3
3
3
3
3
3
3
3
3
3
3
3
3
3
3
3
3
3
3
3
3
3
3
3
3
3
3
3
3
3
3
3
3
3
3
3
3
3
3
3
3
3
3
3
3
3
3
3
3
3
3
3
3
3
3
3
3
3
3
3
3
3
3
3
3
3
3
3
3
3
3

POINT_DATA 101
SCALARS MODE2_357.5556_Hz float 1
LOOKUP_TABLE default
0.047286102353484766
0.0
0.0004793082099848857
0.04732289249279532
0.09079607896717243
0.13044744030123204
0.16629345773838583
0.19835541971449408
0.22666049192970483
0.25124299903528763
0.27214563402997044
0.28942057331067067
0.303130505257008
0.3133495906637029
0.3201643827907815
0.32367474736673496
0.3239948413615617
0.321254237574437
0.31559932627401455
0.30719519585862326
0.2962283101390978
0.28291049278157593
0.26748505726513716
0.25023648520851965
0.23150603055078986
0.2117172738193954
0.19141821061477587
0.1713494045367726
0.15254655178134377
0.13646189881932477
0.12499592535092693
0.12016009992093138
0.12318804739416565
0.1337548715469426
0.1502801061321636
0.17088535641256222
0.19399791941435293
0.2184616241007869
0.24344940806200918
0.26835741118693857
0.2927276101193405
0.3161984927004184
0.3384749012078226
0.3593097364677153
0.3784928034263513
0.39584395559251817
0.4112088533097836
0.4244563315533143
0.4354767700591346
0.4441810923721761
0.4505001605194831
0.4543844180641611
0.4558036888522922
0.4547470749400612
0.45122292285996396
0.4452588475936952
0.43690182199175076
0.42621835907771893
0.41329483919324195
0.3982380680120258
0.3811762023684398
0.3622602606429601
0.3416665637464795
0.31960066760191974
0.29630371183872767
0.2720627320181373
0.24722754296174537
0.22223853611374536
0.19767221407101615
0.17431323481026575
0.15325603818223776
0.1360009566975483
0.12439244197580805
0.12010782754406896
0.12371289548688717
0.13419176067221472
0.14959461696982387
0.1679735908406134
0.18780591621959375
0.20799910478357247
0.22777381066635924
0.24655662707871953
0.2639071397230031
0.2794725226704446
0.2929599239605213
0.3041196187529446
0.3127345820074011
0.3186139023381833
0.3215885158604762
0.3215083526661086
0.3182403448518977
0.31166695431271246
0.30168500362644024
0.28820466966532154
0.27114854710049324
0.25045071923417916
0.2260557933533335
0.1979178712015664
0.1659994352650392
0.1302701428608854
0.09070555305491611

