# vtk DataFile Version 2.0
mesh vtk view
ASCII
DATASET UNSTRUCTURED_GRID
POINTS 101 double
-0.004909969497208437 0.0 0.0
2.0 0.0 0.0
0.0199999999999621 5.005176753211583e-05 0.0
0.04490996949708209 0.00019259138342658455 0.0
0.06924885331680362 0.00041620427425430144 0.0
0.0930175381765609 0.0007095059940415737 0.0
0.11621824886511767 0.0010611746338131088 0.0
0.1388550991890426 0.0014599934195114114 0.0
0.16093455994088546 0.0018949018443362687 0.0
0.18246584450176467 0.0023550536971237088 0.0
0.20346121303365486 0.00282988037139488 0.0
0.22393619661554892 0.0033091578711584697 0.0
0.2439097431210984 0.003783075970219205 0.0
0.26340428711156366 0.004242308032172005 0.0
0.2824457465154926 0.004678080058760394 0.0
0.3010634493745058 0.0050822376049492555 0.0
0.31928999444192246 0.005447309279790349 0.0
0.3371610499178638 0.005766565642641681 0.0
0.35471509508123106 0.006034072404036615 0.0
0.3719931100259948 0.006244736948813412 0.0
0.3890382191190146 0.006394347315186133 0.0
0.405895294161027 0.006479602886287508 0.0
0.422610523544927 0.0064981361792425104 0.0
0.4392309539599855 0.006448525249831568 0.0
0.4558040113825095 0.006330296366975813 0.0
0.4723770082183909 0.006143916749254986 0.0
0.48899664351807226 0.005890777294032909 0.0
0.5057085031677199 0.0055731653670658444 0.0
0.5225565668707104 0.005194227855247237 0.0
0.5395827285709986 0.0047579248159470835 0.0
0.5568263367354718 0.004268974181817073 0.0
0.5743237606079896 0.0037327880985806314 0.0
0.5921079881763571 0.003155401583906819 0.0
0.6102082611587533 0.0025433942967572096 0.0
0.6286497518227859 0.0019038062974762605 0.0
0.6474532859037438 0.0012440487583628866 0.0
0.6666351152948855 0.0005718106516376492 0.0
0.6862067435484516 -0.00010503750413023244 0.0
0.7061748065587927 -0.0007785417175357283 0.0
0.7265410101062546 -0.0014407632696970209 0.0
0.7473021252303041 -0.0020838769711815633 0.0
0.7684500416811333 -0.002700267772440679 0.0
0.7899718789790425 -0.0032826245862493993 0.0
0.8118501538987832 -0.003824030211297647 0.0
0.8340630025001223 -0.004318046290416252 0.0
0.8565844541544008 -0.004758792294376747 0.0
0.879384754377778 -0.005141017592054263 0.0
0.9024307326827324 -0.005460165749115506 0.0
0.9256862111073857 -0.005712430289280536 0.0
0.9491124485838602 -0.00589480125347436 0.0
0.9726686158681401 -0.006005102001586092 0.0
0.9963122953800023 -0.00604201581774768 0.0
1.0199999999968894 -0.006005102001606835 0.0
1.0436877046138162 -0.005894801253514817 0.0
1.0673313841258045 -0.005712430289339465 0.0
1.0908875514102419 -0.0054601657491914896 0.0
1.1143137888868846 -0.005141017592145685 0.0
1.1375692673117153 -0.004758792294481864 0.0
1.1606152456168541 -0.0043180462905332215 0.0
1.183415545840422 -0.003824030211424522 0.0
1.205936997494896 -0.003282624586384197 0.0
1.228149846096435 -0.0027002677725813393 0.0
1.2500281210163788 -0.0020838769713260527 0.0
1.271549958314491 -0.0014407632698433836 0.0
1.2926978747655236 -0.0007785417176819959 0.0
1.3134589898897748 -0.0001050375042745576 0.0
1.3338251934374354 0.0005718106514969921 0.0
1.3537932564479704 0.001244048758227459 0.0
1.3733648847017261 0.0019038062973475325 0.0
1.3925467140930514 0.0025433942966364468 0.0
1.4113502481741864 0.003155401583795114 0.0
1.4297917388383872 0.0037327880984788374 0.0
1.447892011820945 0.004268974181725913 0.0
1.465676239389466 0.004757924815867047 0.0
1.4831736632621286 0.005194227855178607 0.0
1.500417271426736 0.005573165367008671 0.0
1.5174434331271505 0.005890777293987064 0.0
1.5342914968302572 0.006143916749220126 0.0
1.5510033564800128 0.006330296366951396 0.0
1.5676229917797921 0.006448525249816898 0.0
1.5841959886157653 0.006498136179236742 0.0
1.600769046038374 0.006479602886289672 0.0
1.6173894764535113 0.006394347315195165 0.0
1.6341047058374856 0.0062447369488282094 0.0
1.6509617808795705 0.006034072404056026 0.0
1.6680068899726603 0.005766565642664618 0.0
1.6852849049174996 0.005447309279815815 0.0
1.7028389500809422 0.005082237604976266 0.0
1.720710005556956 0.004678080058787953 0.0
1.7389365506244427 0.00424230803219947 0.0
1.7575542534835336 0.0037830759702460735 0.0
1.7765957128875256 0.003309157871184075 0.0
1.7960902568780424 0.002829880371418536 0.0
1.8160638033836454 0.0023550536971448702 0.0
1.8365387869655967 0.001894901844354507 0.0
1.8575341554975477 0.0014599934195263851 0.0
1.8790654400584963 0.0010611746338246011 0.0
1.9011449008104204 0.000709505994049683 0.0
1.9237817511344397 0.00041620427425938006 0.0
1.946982461823098 0.00019259138342917514 0.0
1.9707511466829613 5.005176753286333e-05 0.0

CELLS 100 300
2 0 2
2 2 3
2 3 4
2 4 5
2 5 6
2 6 7
2 7 8
2 8 9
2 9 10
2 10 11
2 11 12
2 12 13
2 13 14
2 14 15
2 15 16
2 16 17
2 17 18
2 18 19
2 19 20
2 20 21
2 21 22
2 22 23
2 23 24
2 24 25
2 25 26
2 26 27
2 27 28
2 28 29
2 29 30
2 30 31
2 31 32
2 32 33
2 33 34
2 34 35
2 35 36
2 36 37
2 37 38
2 38 39
2 39 40
2 40 41
2 41 42
2 42 43
2 43 44
2 44 45
2 45 46
2 46 47
2 47 48
2 48 49
2 49 50
2 50 51
2 51 52
2 52 53
2 53 54
2 54 55
2 55 56
2 56 57
2 57 58
2 58 59
2 59 60
2 60 61
2 61 62
2 62 63
2 63 64
2 64 65
2 65 66
2 66 67
2 67 68
2 68 69
2 69 70
2 70 71
2 71 72
2 72 73
2 73 74
2 74 75
2 75 76
2 76 77
2 77 78
2 78 79
2 79 80
2 80 81
2 81 82
2 82 83
2 83 84
2 84 85
2 85 86
2 86 87
2 87 88
2 88 89
2 89 90
2 90 91
2 91 92
2 92 93
2 93 94
2 94 95
2 95 96
2 96 97
2 97 98
2 98 99
2 99 100
2 100 1

CELL_TYPES 100
3
3
3
3
3
3
3
3
3
3
3
3
3
3
3
3
3
3
3
3
3
3
3
3
3
3
3
3
3
3
3
3
3
3
3
3
3
3
3
3
3
3
3
3
3
3
3
3
3
3
3
3
3
3
3
3
3
3
3
3
3
3
3
3
3
3
3
3
3
3
3
3
3
3
3
3
3
3
3
3
3
3
3
3
3
3
3
3
3
3
3
3
3
3
3
3
3
3
3
3

POINT_DATA 101
SCALARS MODE3_700.9519_Hz float 1
LOOKUP_TABLE default
0.09118681450882947
0.0
0.0009295498158155557
0.09125693601064871
0.17194138989559998
0.24211752563866326
0.3018456195523431
0.35122073437955076
0.39038123783074025
0.41951665093360097
0.4388743930953513
0.44876556566007236
0.44957009940729364
0.4417418422101094
0.4258146254729908
0.40241127590314535
0.37225952663006556
0.3362233383824324
0.2953693905861641
0.25111848097084255
0.20561646596266256
0.16269096357570562
0.13005623241157516
0.12060917064520164
0.14104640074252445
0.18183052404251954
0.23179405068947723
0.284885748156236
0.3380129956007315
0.3893445356842922
0.43761754145211396
0.481865977848573
0.5213081994526352
0.5552979004957344
0.58330211230909
0.6048914241579987
0.6197358915010641
0.6276035512351726
0.6283600213816724
0.6219684288907779
0.608489336141778
0.588080632926178
0.5609976509681489
0.5275941663325547
0.4883256894815294
0.44375796608272994
0.3945871023280649
0.34168649718283334
0.28622005613700674
0.22993578233921122
0.17600162206852357
0.13146020517385276
0.11152536133645088
0.12913436181892646
0.17260862676025518
0.22620397121191704
0.28245858967885845
0.3380496750468379
0.39117005490412865
0.4406290395314782
0.4855384304692499
0.525192157677721
0.5590165711177802
0.5865491445438971
0.6074294550163418
0.6213956605478821
0.6282834004729654
0.6280256487835765
0.6206528188984243
0.6062928400991003
0.5851712192088566
0.5576113922732329
0.5240360817914851
0.484971103285711
0.44105453413311424
0.39305739517941934
0.341929711109961
0.28890568184874604
0.23575651173351375
0.18543283235797672
0.1436548697217123
0.12118229539431824
0.1282696381178451
0.1594916285155639
0.20182602167624572
0.2471426943059258
0.29140944675391245
0.3323935451355953
0.368633604795372
0.3990407355651612
0.4227365221140091
0.43898222122037955
0.4471455589731115
0.44668394946773293
0.4371350665049449
0.4181105778211253
0.3892909677624317
0.35042035767251717
0.30130072125215007
0.24178515649550936
0.1717700734856661

