# vtk DataFile Version 2.0
mesh vtk view
ASCII
DATASET UNSTRUCTURED_GRID
POINTS 101 double
0.017184893240229527 0.0 0.0
2.0 0.0 0.0
0.0199999999999621 -0.00017518118636240538 0.0
0.022815106759873083 -0.0006740698419930458 0.0
0.027629013390673494 -0.0014567149598900548 0.0
0.03443861638133174 -0.0024832709791455074 0.0
0.04323612897118269 -0.0037141112183458804 0.0
0.05400715283725338 -0.00510997696828994 0.0
0.06672904020564219 -0.00663215645517694 0.0
0.08136954424242644 -0.00824268793993298 0.0
0.09788575438067308 -0.00990458129988208 0.0
0.11622331184390614 -0.011582052549054641 0.0
0.1363158990743448 -0.013240765895767217 0.0
0.15808499510757007 -0.014848078112602015 0.0
0.1814398871936183 -0.01637328020566138 0.0
0.2062779271868183 -0.01778783161732239 0.0
0.2324850194505969 -0.019065582479266218 0.0
0.25993632528453975 -0.02018297974924588 0.0
0.28849716721249175 -0.021119253414128146 0.0
0.3180241149055554 -0.02185657932084694 0.0
0.348366233079724 -0.022380215603151465 0.0
0.37936647043241767 -0.022678610102006273 0.0
0.41086316758850483 -0.022743476627348783 0.0
0.44269166113553765 -0.022569838374410484 0.0
0.4746859601564404 -0.022156037284415342 0.0
0.5066804712305933 -0.02150370862239245 0.0
0.5385117476814455 -0.020617720529115178 0.0
0.5700202389074159 -0.019506078784730454 0.0
0.6010520159466866 -0.01817979749336533 0.0
0.6314604499954153 -0.016652736855814792 0.0
0.6611078214194965 -0.014941409636359752 0.0
0.6898668378654211 -0.013064758345032209 0.0
0.717622041375872 -0.011043905543673866 0.0
0.7442710859372227 -0.008901880038650231 0.0
0.7697258686128463 -0.00666332204116691 0.0
0.7939134993292307 -0.004354170654270103 0.0
0.8167770964599718 -0.0020013372807317718 0.0
0.8382763975722279 0.00036763126445581347 0.0
0.8583881770357711 0.002724896011375049 0.0
0.8771064646193923 0.005042671443939573 0.0
0.8944425616849563 0.00729356939913547 0.0
0.910424854106791 0.009450937203542373 0.0
0.9250984235638461 0.011489186051872895 0.0
0.9385244613444907 0.013384105739541761 0.0
0.9507794912395419 0.015113162016456879 0.0
0.9619544104493047 0.01665577303031861 0.0
0.9721533596672215 0.01799356157218992 0.0
0.9814924355996179 0.01911058012190427 0.0
0.9900982611130686 0.019993506012481874 0.0
0.9981064299451456 0.02063180438716026 0.0
1.0056598444499032 0.02101785700555132 0.0
1.0129069661582206 0.021147055362116876 0.0
1.0199999999992546 0.02101785700562392 0.0
1.0270930338402493 0.020631804387301854 0.0
1.034340155548528 0.019993506012688126 0.0
1.0418935700532312 0.01911058012217021 0.0
1.0499017388852208 0.017993561572509895 0.0
1.0585075643985524 0.01665577303068652 0.0
1.0678466403308047 0.015113162016866275 0.0
1.0780455895485552 0.013384105739985825 0.0
1.089220508758131 0.011489186052344688 0.0
1.1014755386529824 0.009450937204034686 0.0
1.1149015764334176 0.007293569399641184 0.0
1.1295751458902594 0.005042671444451842 0.0
1.1455574383118838 0.0027248960118869854 0.0
1.1628935353772427 0.00036763126496095155 0.0
1.181611822960669 -0.002001337280239472 0.0
1.2017236024240305 -0.004354170653796106 0.0
1.2232229035361244 -0.006663322040716363 0.0
1.2460865006667234 -0.008901880038227563 0.0
1.27027413138299 -0.011043905543282898 0.0
1.295728914058521 -0.013064758344675928 0.0
1.322377958619807 -0.014941409636040693 0.0
1.3501331621302222 -0.016652736855534662 0.0
1.3788921785761417 -0.01817979749312512 0.0
1.4085395500002493 -0.019506078784530347 0.0
1.4389479840490385 -0.02061772052895472 0.0
1.4699797610884024 -0.02150370862227044 0.0
1.5014882523144968 -0.022156037284329886 0.0
1.5333195287655028 -0.022569838374359143 0.0
1.5653140398398362 -0.022743476627328594 0.0
1.5973083388609428 -0.022678610102013847 0.0
1.6291368324082012 -0.022380215603183075 0.0
1.6606335295645254 -0.02185657932089873 0.0
1.691633766917467 -0.021119253414196088 0.0
1.7219758850918907 -0.02018297974932616 0.0
1.751502832785192 -0.019065582479355348 0.0
1.7800636747133765 -0.01778783161741693 0.0
1.8075149805475679 -0.016373280205757835 0.0
1.8337220728116015 -0.014848078112698141 0.0
1.858560112805023 -0.013240765895861255 0.0
1.8819150048912847 -0.011582052549144262 0.0
1.903684100924715 -0.009904581299964875 0.0
1.9237766881553418 -0.008242687940007045 0.0
1.9421142456187515 -0.006632156455240773 0.0
1.9586304557571566 -0.005109976968342348 0.0
1.9732709597940745 -0.0037141112183861034 0.0
1.9859928471625792 -0.00248327097917389 0.0
1.99676387102875 -0.0014567149599078299 0.0
2.00556138361868 -0.0006740698420021129 0.0
2.0123709866093966 -0.00017518118636502162 0.0

CELLS 100 300
2 0 2
2 2 3
2 3 4
2 4 5
2 5 6
2 6 7
2 7 8
2 8 9
2 9 10
2 10 11
2 11 12
2 12 13
2 13 14
2 14 15
2 15 16
2 16 17
2 17 18
2 18 19
2 19 20
2 20 21
2 21 22
2 22 23
2 23 24
2 24 25
2 25 26
2 26 27
2 27 28
2 28 29
2 29 30
2 30 31
2 31 32
2 32 33
2 33 34
2 34 35
2 35 36
2 36 37
2 37 38
2 38 39
2 39 40
2 40 41
2 41 42
2 42 43
2 43 44
2 44 45
2 45 46
2 46 47
2 47 48
2 48 49
2 49 50
2 50 51
2 51 52
2 52 53
2 53 54
2 54 55
2 55 56
2 56 57
2 57 58
2 58 59
2 59 60
2 60 61
2 61 62
2 62 63
2 63 64
2 64 65
2 65 66
2 66 67
2 67 68
2 68 69
2 69 70
2 70 71
2 71 72
2 72 73
2 73 74
2 74 75
2 75 76
2 76 77
2 77 78
2 78 79
2 79 80
2 80 81
2 81 82
2 82 83
2 83 84
2 84 85
2 85 86
2 86 87
2 87 88
2 88 89
2 89 90
2 90 91
2 91 92
2 92 93
2 93 94
2 94 95
2 95 96
2 96 97
2 97 98
2 98 99
2 99 100
2 100 1

CELL_TYPES 100
3
3
3
3
3
3
3
3
3
3
3
3
3
3
3
3
3
3
3
3
3
3
3
3
3
3
3
3
3
3
3
3
3
3
3
3
3
3
3
3
3
3
3
3
3
3
3
3
3
3
3
3
3
3
3
3
3
3
3
3
3
3
3
3
3
3
3
3
3
3
3
3
3
3
3
3
3
3
3
3
3
3
3
3
3
3
3
3
3
3
3
3
3
3
3
3
3
3
3
3

POINT_DATA 101
SCALARS MODE3_700.9519_Hz float 1
LOOKUP_TABLE default
0.09118681450882947
0.0
0.0009295498158155557
0.09125693601064871
0.17194138989559998
0.24211752563866326
0.3018456195523431
0.35122073437955076
0.39038123783074025
0.41951665093360097
0.4388743930953513
0.44876556566007236
0.44957009940729364
0.4417418422101094
0.4258146254729908
0.40241127590314535
0.37225952663006556
0.3362233383824324
0.2953693905861641
0.25111848097084255
0.20561646596266256
0.16269096357570562
0.13005623241157516
0.12060917064520164
0.14104640074252445
0.18183052404251954
0.23179405068947723
0.284885748156236
0.3380129956007315
0.3893445356842922
0.43761754145211396
0.481865977848573
0.5213081994526352
0.5552979004957344
0.58330211230909
0.6048914241579987
0.6197358915010641
0.6276035512351726
0.6283600213816724
0.6219684288907779
0.608489336141778
0.588080632926178
0.5609976509681489
0.5275941663325547
0.4883256894815294
0.44375796608272994
0.3945871023280649
0.34168649718283334
0.28622005613700674
0.22993578233921122
0.17600162206852357
0.13146020517385276
0.11152536133645088
0.12913436181892646
0.17260862676025518
0.22620397121191704
0.28245858967885845
0.3380496750468379
0.39117005490412865
0.4406290395314782
0.4855384304692499
0.525192157677721
0.5590165711177802
0.5865491445438971
0.6074294550163418
0.6213956605478821
0.6282834004729654
0.6280256487835765
0.6206528188984243
0.6062928400991003
0.5851712192088566
0.5576113922732329
0.5240360817914851
0.484971103285711
0.44105453413311424
0.39305739517941934
0.341929711109961
0.28890568184874604
0.23575651173351375
0.18543283235797672
0.1436548697217123
0.12118229539431824
0.1282696381178451
0.1594916285155639
0.20182602167624572
0.2471426943059258
0.29140944675391245
0.3323935451355953
0.368633604795372
0.3990407355651612
0.4227365221140091
0.43898222122037955
0.4471455589731115
0.44668394946773293
0.4371350665049449
0.4181105778211253
0.3892909677624317
0.35042035767251717
0.30130072125215007
0.24178515649550936
0.1717700734856661

