# vtk DataFile Version 2.0
mesh vtk view
ASCII
DATASET UNSTRUCTURED_GRID
POINTS 101 double
0.0005836234277767512 0.0 0.0
2.0 0.0 0.0
0.0199999999999621 -5.882513797508958e-06 0.0
0.03941637657216054 -2.3159822629338095e-05 0.0
0.0588605202193826 -5.127661414714619e-05 0.0
0.07833242730725466 -8.967770097523329e-05 0.0
0.09783208852073011 -0.00013780816099003598 0.0
0.1173594862206519 -0.00019511352907915214 0.0
0.1369145919392217 -0.00026104003760247277 0.0
0.1564973640142917 -0.00033503490278014486 0.0
0.1761077453623534 -0.0004165466542357004 0.0
0.1957456613900061 -0.0005050255049275885 0.0
0.21541101804359836 -0.0005999237587089017 0.0
0.2351036999966865 -0.000700696252763616 0.0
0.2548235689748292 -0.000806800832178136 0.0
0.274570462217166 -0.0009176988539198164 0.0
0.2943441910740469 -0.0010328557175088011 0.0
0.31414453973989703 -0.0011517414196873844 0.0
0.33397126412040995 -0.001273831130411578 0.0
0.35382409083296074 -0.0013986057875121675 0.0
0.3737027163390304 -0.001525552707398667 0.0
0.3936068062072486 -0.001654166209208501 0.0
0.4135359945055616 -0.001783948249835582 0.0
0.4334898833208342 -0.0019144090673075614 0.0
0.4534680424040606 -0.002045067830019271 0.0
0.4734700089391892 -0.0021754532893713454 0.0
0.4934952874334083 -0.002305104433407653 0.0
0.5135433497265773 -0.0024335711390932385 0.0
0.5336136351173206 -0.002560414820925613 0.0
0.5537055506031422 -0.0026852090736268095 0.0
0.5738184712317543 -0.002807540306721316 0.0
0.5939517405606523 -0.0029270083688660077 0.0
0.6141046712218066 -0.0030432271598623065 0.0
0.6342765455881868 -0.0031558252283480403 0.0
0.6544666165386801 -0.0032644463532368715 0.0
0.6746741083178077 -0.0033687501070463885 0.0
0.6948982174865046 -0.003468412399332234 0.0
0.715138113960078 -0.0035631259985246687 0.0
0.7353929421293248 -0.003652601030545702 0.0
0.7556618220606526 -0.0037365654526693554 0.0
0.7759438507709233 -0.0038147655011743957 0.0
0.7962381035726167 -0.0038869661114282177 0.0
0.8165436354847918 -0.003952951309131941 0.0
0.8368594827052219 -0.004012524571550432 0.0
0.8571846641389735 -0.004065509157646422 0.0
0.8775181829786038 -0.0041117484061352835 0.0
0.8978590283310718 -0.004151106000576082 0.0
0.9182061768863674 -0.0041834662007148036 0.0
0.9385585946228092 -0.004208734039397707 0.0
0.9589152385438802 -0.004226835484475603 0.0
0.9792750584414339 -0.004237717565223727 0.0
0.9996369986800719 -0.0042413484629068784 0.0
1.019999999997393 -0.0042377175652245904 0.0
1.0403630013147367 -0.004226835484477271 0.0
1.0607249415534645 -0.00420873403940014 0.0
1.0810847614511288 -0.004183466200717959 0.0
1.101441405372311 -0.004151106000579923 0.0
1.1217938231088644 -0.004111748406139773 0.0
1.142140971664271 -0.004065509157651524 0.0
1.1624818170168503 -0.004012524571556112 0.0
1.1828153358565914 -0.003952951309138151 0.0
1.203140517290455 -0.0038869661114348947 0.0
1.2234563645109977 -0.0038147655011814834 0.0
1.2437618964232844 -0.0037365654526768004 0.0
1.2640561492250904 -0.0036526010305534414 0.0
1.2843381779354741 -0.003563125998532647 0.0
1.304607057866914 -0.0034684123993404116 0.0
1.3248618860362715 -0.0033687501070547373 0.0
1.3451017825099565 -0.0032644463532453586 0.0
1.3653258916787647 -0.003155825228356639 0.0
1.385533383458004 -0.0030432271598709905 0.0
1.405723454408608 -0.0029270083688747585 0.0
1.4258953287750997 -0.0028075403067301065 0.0
1.446048259436365 -0.002685209073635628 0.0
1.4661815287653748 -0.00256041482093444 0.0
1.4862944493940977 -0.0024335711391020552 0.0
1.5063863648800315 -0.002305104433416419 0.0
1.5264566502708876 -0.002175453289380022 0.0
1.54650471256417 -0.002045067830027809 0.0
1.566529991058502 -0.0019144090673159104 0.0
1.5865319575937449 -0.0017839482498436786 0.0
1.6065101166770857 -0.0016541662092162852 0.0
1.626464005492473 -0.0015255527074060794 0.0
1.6463931937908995 -0.0013986057875191636 0.0
1.6662972836592322 -0.0012738311304181038 0.0
1.6861759091654158 -0.0011517414196934007 0.0
1.706028735878081 -0.0010328557175142868 0.0
1.725855460258705 -0.000917698853924775 0.0
1.745655808924668 -0.0008068008321825682 0.0
1.7654295377816618 -0.0007006962527675871 0.0
1.7851764310241092 -0.0005999237587124788 0.0
1.804896300002349 -0.0005050255049307942 0.0
1.8245889819555239 -0.0004165466542385413 0.0
1.8442543386092003 -0.00033503490278263636 0.0
1.8638922546369374 -0.00026104003760462274 0.0
1.883502635985083 -0.00019511352908095636 0.0
1.903085408060238 -0.0001378081609914842 0.0
1.922640513778898 -8.967770097633582e-05 0.0
1.942167911478917 -5.1276614147920834e-05 0.0
1.9616675726924908 -2.3159822629800687e-05 0.0
1.9811394797804605 -5.882513797662882e-06 0.0

CELLS 100 300
2 0 2
2 2 3
2 3 4
2 4 5
2 5 6
2 6 7
2 7 8
2 8 9
2 9 10
2 10 11
2 11 12
2 12 13
2 13 14
2 14 15
2 15 16
2 16 17
2 17 18
2 18 19
2 19 20
2 20 21
2 21 22
2 22 23
2 23 24
2 24 25
2 25 26
2 26 27
2 27 28
2 28 29
2 29 30
2 30 31
2 31 32
2 32 33
2 33 34
2 34 35
2 35 36
2 36 37
2 37 38
2 38 39
2 39 40
2 40 41
2 41 42
2 42 43
2 43 44
2 44 45
2 45 46
2 46 47
2 47 48
2 48 49
2 49 50
2 50 51
2 51 52
2 52 53
2 53 54
2 54 55
2 55 56
2 56 57
2 57 58
2 58 59
2 59 60
2 60 61
2 61 62
2 62 63
2 63 64
2 64 65
2 65 66
2 66 67
2 67 68
2 68 69
2 69 70
2 70 71
2 71 72
2 72 73
2 73 74
2 74 75
2 75 76
2 76 77
2 77 78
2 78 79
2 79 80
2 80 81
2 81 82
2 82 83
2 83 84
2 84 85
2 85 86
2 86 87
2 87 88
2 88 89
2 89 90
2 90 91
2 91 92
2 92 93
2 93 94
2 94 95
2 95 96
2 96 97
2 97 98
2 98 99
2 99 100
2 100 1

CELL_TYPES 100
3
3
3
3
3
3
3
3
3
3
3
3
3
3
3
3
3
3
3
3
3
3
3
3
3
3
3
3
3
3
3
3
3
3
3
3
3
3
3
3
3
3
3
3
3
3
3
3
3
3
3
3
3
3
3
3
3
3
3
3
3
3
3
3
3
3
3
3
3
3
3
3
3
3
3
3
3
3
3
3
3
3
3
3
3
3
3
3
3
3
3
3
3
3
3
3
3
3
3
3

POINT_DATA 101
SCALARS MODE1_129.7118_Hz float 1
LOOKUP_TABLE default
0.017440921832341978
0.0
0.00017579222909343576
0.017454648767402235
0.03408651653507708
0.04990551922648683
0.06491632756269648
0.07912387896685245
0.092533315276368
0.1051500408187359
0.11697979292646944
0.12802871300668378
0.13830341590824888
0.14781105710241743
0.15655939766072438
0.16455686718478058
0.17181262493259128
0.17833661945501716
0.18413964712217293
0.18923340999121144
0.19363057354788382
0.19734482494910216
0.200390932501593
0.20278480723976655
0.2045435676130017
0.20568560846329936
0.20623067566949874
0.20619994805562522
0.20561612840656449
0.20450354569960047
0.20288827093408196
0.20079824920223582
0.19826345085452332
0.19531604471047387
0.19199059615055183
0.18832429244010088
0.1843571965462954
0.18013252866561677
0.17569697118914018
0.1711009872269012
0.16639913424287098
0.16165034185622457
0.15691810557048316
0.15227052577709219
0.14778009491484168
0.143523108922956
0.1395785601829024
0.13602637156227848
0.13294487310931036
0.13040752183992751
0.1284790262712583
0.12721123912259638
0.12663936587360014
0.12677912044578102
0.1276253722036423
0.129152563370621
0.1313168107065372
0.13405927132480921
0.1373101642493914
0.140992836157694
0.14502740036264133
0.14933368017024748
0.15383337629426141
0.15845151163946583
0.16311727791459668
0.16776442991105842
0.1723313637499063
0.17676099139644105
0.18100049628793502
0.18500102993867384
0.18871738922327716
0.19210769898724098
0.19513311403371478
0.1977575474287987
0.19994742752404154
0.20167148334266524
0.2029005564263962
0.20360743646920818
0.20376671777898006
0.20335467361151996
0.20234914558554748
0.20072944563109174
0.19847626819754485
0.19557161072246798
0.19199870062200952
0.18774192730060782
0.18278677788866907
0.17711977560211004
0.17072841977839578
0.16360112678245595
0.15572717109522813
0.1470966260001969
0.13770030337211775
0.1275296921503407
0.11657689515124656
0.10483456394865988
0.09229583164830564
0.0789542435647913
0.06480368630814447
0.049838317674944295
0.03405250998963208

