# vtk DataFile Version 2.0
mesh vtk view
ASCII
DATASET UNSTRUCTURED_GRID
POINTS 101 double
0.005541140291175963 0.0 0.0
2.0 0.0 0.0
0.0199999999999621 5.616690532843105e-05 0.0
0.0455411402909899 0.00021862386298711123 0.0
0.07062902528165974 0.0004783078668999867 0.0
0.09526391626615008 0.0008261648427739142 0.0
0.1194464759459839 0.0012531594678805485 0.0
0.14317794472394024 0.0017502883446477576 0.0
0.16646029979711546 0.0023085961844830603 0.0
0.18929639709724028 0.00291919465948394 0.0
0.21169009615437423 0.003573283581537304 0.0
0.23364636799338132 0.004262174070871505 0.0
0.25517138621067315 0.004977313379488862 0.0
0.2762726014208621 0.005710311039151561 0.0
0.2969587993086071 0.00645296600877961 0.0
0.3172401425694645 0.0071972945022996905 0.0
0.3371281970741005 0.007935558185189642 0.0
0.35663594264256915 0.00866029243623142 0.0
0.37577776886873243 0.009364334380323048 0.0
0.39456945648841024 0.010040850408606009 0.0
0.41302814483842737 0.010683362913640354 0.0
0.431172286006682 0.011285775979878286 0.0
0.449021586324756 0.011842399783220898 0.0
0.4665969359045635 0.01234797346795219 0.0
0.4839203269681178 0.012797686284780944 0.0
0.5010147617644789 0.01318719679002585 0.0
0.517904150909757 0.01351264992308693 0.0
0.5346132030244459 0.013770691797183187 0.0
0.5511673065768256 0.013958482056821472 0.0
0.5675924048714883 0.014073703674508675 0.0
0.5839148651478563 0.014114570078735351 0.0
0.6001613427746247 0.014079829525146957 0.0
0.6163586415421581 0.013968766642977479 0.0
0.6325335710657962 0.013781201109144794 0.0
0.6487128023186622 0.013517483422789826 0.0
0.66492272231277 0.013178487773374239 0.0
0.6811892889419522 0.012765602015622655 0.0
0.6975378869893203 0.012280714784496004 0.0
0.7139931862856681 0.011726199802902017 0.0
0.7305790029834421 0.01110489745387808 0.0
0.747318164883717 0.010420093707415274 0.0
0.7642323817211848 0.009675496509824855 0.0
0.7813421212746003 0.00887520976048078 0.0
0.7986664921276295 0.008023705016806217 0.0
0.8162231338578609 0.007125791083418163 0.0
0.834028115380086 0.006186581655314534 0.0
0.8520958421141305 0.005211461197803513 0.0
0.8704389725878371 0.004206049257459876 0.0
0.8890683450225835 0.003176163408682396 0.0
0.9079929143823454 0.0021277810493588257 0.0
0.9272197002981385 0.001067000266669931 0.0
0.9467537462081392 1.3578963136790374e-13 0.0
0.9665980899801745 -0.001067000266402865 0.0
0.9867537462081319 -0.0021277810491003644 0.0
1.0072197002980607 -0.0031761634084341507 0.0
1.0279929143821789 -0.004206049257223299 0.0
1.049068345022335 -0.0052114611975800085 0.0
1.0704389725875123 -0.006186581655105291 0.0
1.092095842113735 -0.007125791083224201 0.0
1.114028115379627 -0.008023705016628404 0.0
1.136223133857345 -0.008875209760319736 0.0
1.158666492127066 -0.009675496509681112 0.0
1.1813421212739967 -0.01042009370728914 0.0
1.2042323817205471 -0.011104897453769677 0.0
1.227318164883053 -0.011726199802811366 0.0
1.25057900298276 -0.012280714784422938 0.0
1.2739931862849725 -0.012765602015566903 0.0
1.2975378869886145 -0.013178487773335398 0.0
1.3211892889412435 -0.013517483422767396 0.0
1.3449227223120632 -0.013781201109138138 0.0
1.3687128023179633 -0.013968766642985873 0.0
1.392533571065111 -0.014079829525169509 0.0
1.4163586415414913 -0.014114570078771127 0.0
1.4401613427739801 -0.014073703674556662 0.0
1.4639148651472382 -0.013958482056880566 0.0
1.4875924048709013 -0.013770691797252191 0.0
1.5111673065762763 -0.013512649923164536 0.0
1.534613203023939 -0.013187196790110675 0.0
1.557904150909297 -0.012797686284871537 0.0
1.581014761764069 -0.012347973468047082 0.0
1.6039203269677622 -0.01184239978331855 0.0
1.6265969359042627 -0.0112857759799772 0.0
1.6490215863245117 -0.010683362913739055 0.0
1.6711722860064901 -0.010040850408703174 0.0
1.6930281448382862 -0.009364334380417333 0.0
1.7145694564883167 -0.008660292436321696 0.0
1.7357777688686815 -0.007935558185274938 0.0
1.7566359426425466 -0.007197294502379279 0.0
1.777128197074108 -0.006452966008852794 0.0
1.7972401425695006 -0.005710311039218214 0.0
1.816958799308664 -0.004977313379549023 0.0
1.8362726014209465 -0.0042621740709249895 0.0
1.8551713862107948 -0.0035732835815839225 0.0
1.873646367993535 -0.0029191946595236843 0.0
1.8916900961545562 -0.002308596184516019 0.0
1.909296397097446 -0.0017502883446740552 0.0
1.926460299797339 -0.0012531594679004048 0.0
1.943177944724171 -0.0008261648427878713 0.0
1.95944647594621 -0.00047830786690881326 0.0
1.9752639162663639 -0.00021862386299172518 0.0
1.9906290252818604 -5.6166905329801236e-05 0.0

CELLS 100 300
2 0 2
2 2 3
2 3 4
2 4 5
2 5 6
2 6 7
2 7 8
2 8 9
2 9 10
2 10 11
2 11 12
2 12 13
2 13 14
2 14 15
2 15 16
2 16 17
2 17 18
2 18 19
2 19 20
2 20 21
2 21 22
2 22 23
2 23 24
2 24 25
2 25 26
2 26 27
2 27 28
2 28 29
2 29 30
2 30 31
2 31 32
2 32 33
2 33 34
2 34 35
2 35 36
2 36 37
2 37 38
2 38 39
2 39 40
2 40 41
2 41 42
2 42 43
2 43 44
2 44 45
2 45 46
2 46 47
2 47 48
2 48 49
2 49 50
2 50 51
2 51 52
2 52 53
2 53 54
2 54 55
2 55 56
2 56 57
2 57 58
2 58 59
2 59 60
2 60 61
2 61 62
2 62 63
2 63 64
2 64 65
2 65 66
2 66 67
2 67 68
2 68 69
2 69 70
2 70 71
2 71 72
2 72 73
2 73 74
2 74 75
2 75 76
2 76 77
2 77 78
2 78 79
2 79 80
2 80 81
2 81 82
2 82 83
2 83 84
2 84 85
2 85 86
2 86 87
2 87 88
2 88 89
2 89 90
2 90 91
2 91 92
2 92 93
2 93 94
2 94 95
2 95 96
2 96 97
2 97 98
2 98 99
2 99 100
2 100 1

CELL_TYPES 100
3
3
3
3
3
3
3
3
3
3
3
3
3
3
3
3
3
3
3
3
3
3
3
3
3
3
3
3
3
3
3
3
3
3
3
3
3
3
3
3
3
3
3
3
3
3
3
3
3
3
3
3
3
3
3
3
3
3
3
3
3
3
3
3
3
3
3
3
3
3
3
3
3
3
3
3
3
3
3
3
3
3
3
3
3
3
3
3
3
3
3
3
3
3
3
3
3
3
3
3

POINT_DATA 101
SCALARS MODE2_357.5556_Hz float 1
LOOKUP_TABLE default
0.047286102353484766
0.0
0.0004793082099848857
0.04732289249279532
0.09079607896717243
0.13044744030123204
0.16629345773838583
0.19835541971449408
0.22666049192970483
0.25124299903528763
0.27214563402997044
0.28942057331067067
0.303130505257008
0.3133495906637029
0.3201643827907815
0.32367474736673496
0.3239948413615617
0.321254237574437
0.31559932627401455
0.30719519585862326
0.2962283101390978
0.28291049278157593
0.26748505726513716
0.25023648520851965
0.23150603055078986
0.2117172738193954
0.19141821061477587
0.1713494045367726
0.15254655178134377
0.13646189881932477
0.12499592535092693
0.12016009992093138
0.12318804739416565
0.1337548715469426
0.1502801061321636
0.17088535641256222
0.19399791941435293
0.2184616241007869
0.24344940806200918
0.26835741118693857
0.2927276101193405
0.3161984927004184
0.3384749012078226
0.3593097364677153
0.3784928034263513
0.39584395559251817
0.4112088533097836
0.4244563315533143
0.4354767700591346
0.4441810923721761
0.4505001605194831
0.4543844180641611
0.4558036888522922
0.4547470749400612
0.45122292285996396
0.4452588475936952
0.43690182199175076
0.42621835907771893
0.41329483919324195
0.3982380680120258
0.3811762023684398
0.3622602606429601
0.3416665637464795
0.31960066760191974
0.29630371183872767
0.2720627320181373
0.24722754296174537
0.22223853611374536
0.19767221407101615
0.17431323481026575
0.15325603818223776
0.1360009566975483
0.12439244197580805
0.12010782754406896
0.12371289548688717
0.13419176067221472
0.14959461696982387
0.1679735908406134
0.18780591621959375
0.20799910478357247
0.22777381066635924
0.24655662707871953
0.2639071397230031
0.2794725226704446
0.2929599239605213
0.3041196187529446
0.3127345820074011
0.3186139023381833
0.3215885158604762
0.3215083526661086
0.3182403448518977
0.31166695431271246
0.30168500362644024
0.28820466966532154
0.27114854710049324
0.25045071923417916
0.2260557933533335
0.1979178712015664
0.1659994352650392
0.1302701428608854
0.09070555305491611

