# vtk DataFile Version 2.0
mesh vtk view
ASCII
DATASET UNSTRUCTURED_GRID
POINTS 101 double
-0.003694093527450642 0.0 0.0
2.0 0.0 0.0
0.0199999999999621 -3.744460355228736e-05 0.0
0.036305906472547625 -0.0001457492419914075 0.0
0.05291398314536988 -0.0003188719112666578 0.0
0.06982405582230547 -0.0005507765618492762 0.0
0.08703568270234202 -0.000835439645253699 0.0
0.10454803685030001 -0.0011668588964318385 0.0
0.12235980013479018 -0.0015390641229887068 0.0
0.14046906860132233 -0.0019461297729892935 0.0
0.15887326922984868 -0.0023821890543582027 0.0
0.17756908800379298 -0.002841449380581003 0.0
0.1965524091922139 -0.0033182089196592416 0.0
0.21581826571870044 -0.0038068740261010406 0.0
0.23536080046012947 -0.004301977339186407 0.0
0.2551732382861306 -0.00479819633486646 0.0
0.2752478686162758 -0.005290372123459761 0.0
0.2955760382371994 -0.005773528290820947 0.0
0.3161481540863267 -0.006242889586882031 0.0
0.3369536956731107 -0.006693900272404006 0.0
0.35798123677300214 -0.007122241942426903 0.0
0.3792184759940683 -0.0075238506532521905 0.0
0.4006522757819217 -0.007894933188813931 0.0
0.4222687093952861 -0.008231982311968127 0.0
0.4440531153528191 -0.00853179085652063 0.0
0.4659901588218146 -0.0087914645266839 0.0
0.4880638993915318 -0.009008433282057953 0.0
0.5102578646483085 -0.009180461198122125 0.0
0.5325551289466247 -0.009305654704547648 0.0
0.5549383967500858 -0.009382469116339116 0.0
0.5773900898990765 -0.009409713385823568 0.0
0.5998924381478 -0.009386553016764639 0.0
0.6224275723026805 -0.00931251109531832 0.0
0.6449776192868245 -0.00918746740609653 0.0
0.6675247984514834 -0.009011655615193218 0.0
0.6900515184553141 -0.008785658515582826 0.0
0.7125404740357619 -0.008510401343748437 0.0
0.7349747420040859 -0.008187143189664002 0.0
0.7573378758064234 -0.00781746653526801 0.0
0.7796139980078103 -0.007403264969252053 0.0
0.8017878900741964 -0.00694672913827685 0.0
0.8238450788491203 -0.006450331006549903 0.0
0.8457719191467461 -0.005916806506987187 0.0
0.8675556719112959 -0.0053491366778708116 0.0
0.8891845774243778 -0.004750527388945442 0.0
0.9106479230761305 -0.00412438777020969 0.0
0.9319361052533369 -0.0034743074652023418 0.0
0.953040684937435 -0.0028040328383065844 0.0
0.9739544366475068 -0.0021174422724549308 0.0
0.9946713904075684 -0.0014185206995725504 0.0
1.015186866463609 -0.0007113335111132873 0.0
1.0354975025235476 -9.052642091193582e-14 0.0
1.055601273342242 0.0007113335109352433 0.0
1.0754975025236921 0.0014185206994002432 0.0
1.0951868664638278 0.002117442272289434 0.0
1.1146713904078356 0.0028040328381488664 0.0
1.13395443664782 0.003474307465053339 0.0
1.1530406849377903 0.0041243877700701944 0.0
1.1719361052537298 0.004750527388816134 0.0
1.1906479230765572 0.005349136677752269 0.0
1.2091845774248318 0.005916806506879824 0.0
1.2275556719117728 0.006450331006454074 0.0
1.2457719191472405 0.006946729138192761 0.0
1.2638450788496267 0.007403264969179785 0.0
1.2817878900747115 0.007817466535207578 0.0
1.2996139980083286 0.008187143189615291 0.0
1.3173378758069416 0.008510401343711269 0.0
1.3349747420046003 0.008785658515556932 0.0
1.3525404740362692 0.009011655615178263 0.0
1.3700515184558109 0.009187467406092092 0.0
1.387524798451966 0.009312511095323916 0.0
1.4049776192872876 0.009386553016779672 0.0
1.4224275723031226 0.009409713385847418 0.0
1.439892438148218 0.009382469116371108 0.0
1.4573900898994678 0.009305654704587043 0.0
1.4749383967504457 0.009180461198168127 0.0
1.492555128946951 0.009008433282109691 0.0
1.5102578646485971 0.00879146452674045 0.0
1.5280638993917803 0.008531790856581026 0.0
1.5459901588220188 0.008231982312031387 0.0
1.5640531153529786 0.007894933188879034 0.0
1.5822687093953998 0.007523850653318133 0.0
1.600652275781989 0.0071222419424927024 0.0
1.61921847599409 0.006693900272468782 0.0
1.637981236772981 0.006242889586944889 0.0
1.6569536956730488 0.005773528290881131 0.0
1.6761481540862275 0.0052903721235166255 0.0
1.6955760382370706 0.0047981963349195186 0.0
1.715247868616118 0.004301977339235196 0.0
1.7351732382859446 0.0038068740261454756 0.0
1.755360800459924 0.0033182089196993484 0.0
1.775818265718489 0.00284144938061666 0.0
1.796552409192012 0.002382189054389282 0.0
1.8175690880036066 0.0019461297730157894 0.0
1.838873269229681 0.0015390641230106793 0.0
1.8604690686011744 0.00116685889644937 0.0
1.882359800134667 0.0008354396452669366 0.0
1.904548036850201 0.0005507765618585808 0.0
1.9270356827022634 0.00031887191127254216 0.0
1.9498240558222475 0.00014574924199448346 0.0
1.972913983145338 3.744460355320082e-05 0.0

CELLS 100 300
2 0 2
2 2 3
2 3 4
2 4 5
2 5 6
2 6 7
2 7 8
2 8 9
2 9 10
2 10 11
2 11 12
2 12 13
2 13 14
2 14 15
2 15 16
2 16 17
2 17 18
2 18 19
2 19 20
2 20 21
2 21 22
2 22 23
2 23 24
2 24 25
2 25 26
2 26 27
2 27 28
2 28 29
2 29 30
2 30 31
2 31 32
2 32 33
2 33 34
2 34 35
2 35 36
2 36 37
2 37 38
2 38 39
2 39 40
2 40 41
2 41 42
2 42 43
2 43 44
2 44 45
2 45 46
2 46 47
2 47 48
2 48 49
2 49 50
2 50 51
2 51 52
2 52 53
2 53 54
2 54 55
2 55 56
2 56 57
2 57 58
2 58 59
2 59 60
2 60 61
2 61 62
2 62 63
2 63 64
2 64 65
2 65 66
2 66 67
2 67 68
2 68 69
2 69 70
2 70 71
2 71 72
2 72 73
2 73 74
2 74 75
2 75 76
2 76 77
2 77 78
2 78 79
2 79 80
2 80 81
2 81 82
2 82 83
2 83 84
2 84 85
2 85 86
2 86 87
2 87 88
2 88 89
2 89 90
2 90 91
2 91 92
2 92 93
2 93 94
2 94 95
2 95 96
2 96 97
2 97 98
2 98 99
2 99 100
2 100 1

CELL_TYPES 100
3
3
3
3
3
3
3
3
3
3
3
3
3
3
3
3
3
3
3
3
3
3
3
3
3
3
3
3
3
3
3
3
3
3
3
3
3
3
3
3
3
3
3
3
3
3
3
3
3
3
3
3
3
3
3
3
3
3
3
3
3
3
3
3
3
3
3
3
3
3
3
3
3
3
3
3
3
3
3
3
3
3
3
3
3
3
3
3
3
3
3
3
3
3
3
3
3
3
3
3

POINT_DATA 101
SCALARS MODE2_357.5556_Hz float 1
LOOKUP_TABLE default
0.047286102353484766
0.0
0.0004793082099848857
0.04732289249279532
0.09079607896717243
0.13044744030123204
0.16629345773838583
0.19835541971449408
0.22666049192970483
0.25124299903528763
0.27214563402997044
0.28942057331067067
0.303130505257008
0.3133495906637029
0.3201643827907815
0.32367474736673496
0.3239948413615617
0.321254237574437
0.31559932627401455
0.30719519585862326
0.2962283101390978
0.28291049278157593
0.26748505726513716
0.25023648520851965
0.23150603055078986
0.2117172738193954
0.19141821061477587
0.1713494045367726
0.15254655178134377
0.13646189881932477
0.12499592535092693
0.12016009992093138
0.12318804739416565
0.1337548715469426
0.1502801061321636
0.17088535641256222
0.19399791941435293
0.2184616241007869
0.24344940806200918
0.26835741118693857
0.2927276101193405
0.3161984927004184
0.3384749012078226
0.3593097364677153
0.3784928034263513
0.39584395559251817
0.4112088533097836
0.4244563315533143
0.4354767700591346
0.4441810923721761
0.4505001605194831
0.4543844180641611
0.4558036888522922
0.4547470749400612
0.45122292285996396
0.4452588475936952
0.43690182199175076
0.42621835907771893
0.41329483919324195
0.3982380680120258
0.3811762023684398
0.3622602606429601
0.3416665637464795
0.31960066760191974
0.29630371183872767
0.2720627320181373
0.24722754296174537
0.22223853611374536
0.19767221407101615
0.17431323481026575
0.15325603818223776
0.1360009566975483
0.12439244197580805
0.12010782754406896
0.12371289548688717
0.13419176067221472
0.14959461696982387
0.1679735908406134
0.18780591621959375
0.20799910478357247
0.22777381066635924
0.24655662707871953
0.2639071397230031
0.2794725226704446
0.2929599239605213
0.3041196187529446
0.3127345820074011
0.3186139023381833
0.3215885158604762
0.3215083526661086
0.3182403448518977
0.31166695431271246
0.30168500362644024
0.28820466966532154
0.27114854710049324
0.25045071923417916
0.2260557933533335
0.1979178712015664
0.1659994352650392
0.1302701428608854
0.09070555305491611

