# vtk DataFile Version 2.0
mesh vtk view
ASCII
DATASET UNSTRUCTURED_GRID
POINTS 101 double
0.001021340998609315 0.0 0.0
2.0 0.0 0.0
0.0199999999999621 -1.029439914564068e-05 0.0
0.03897865900133753 -4.052968960134167e-05 0.0
0.05800591038400518 -8.973407475750585e-05 0.0
0.0770817477878132 -0.0001569359767066583 0.0
0.0962061549114286 -0.000241164281732563 0.0
0.11537910088632375 -0.0003414486758885163 0.0
0.13460053589384777 -0.00045682006580432746 0.0
0.15387038702524336 -0.0005863110798652537 0.0
0.1731885543843743 -0.0007289566449124759 0.0
0.19255490743278944 -0.0008837946336232802 0.0
0.21196928157659892 -0.0010498665777405782 0.0
0.2314314749945276 -0.0012262184423363282 0.0
0.25094124570631077 -0.0014119014563117383 0.0
0.27049830888044246 -0.001605972994359679 0.0
0.2901023343800278 -0.001807497505640402 0.0
0.3097529445453093 -0.002015547484452923 0.0
0.3294497122112507 -0.0022292044782202623 0.0
0.34919215895825845 -0.0024475601281462936 0.0
0.36897975359392404 -0.002669717237947668 0.0
0.38881191086334965 -0.0028947908661148777 0.0
0.40868799038544124 -0.003121909437212269 0.0
0.4286072958122121 -0.0033502158677882333 0.0
0.4485690742079021 -0.003578868702533725 0.0
0.4685725156444209 -0.0038070432563998553 0.0
0.4886167530093481 -0.004033932758463393 0.0
0.5087008620224378 -0.004258749493413168 0.0
0.5288238614562824 -0.004480725936619824 0.0
0.5489847135565138 -0.004699115878846918 0.0
0.5691823246566288 -0.004913195536762304 0.0
0.5894155459822441 -0.005122264645515515 0.0
0.6096831746393078 -0.005325647529759037 0.0
0.6299839547805169 -0.0055226941496090715 0.0
0.650316578943924 -0.005712781118164526 0.0
0.6706796895574412 -0.005895312687331181 0.0
0.6910718806027045 -0.006069721698831411 0.0
0.7114916994315017 -0.006235470497418172 0.0
0.7319376487277274 -0.00639205180345498 0.0
0.7524081886075947 -0.006538989542171374 0.0
0.7729017388506123 -0.006675839627055194 0.0
0.7934166812536195 -0.006802190694999383 0.0
0.8139513620999699 -0.0069176647909808976 0.0
0.8345040947357664 -0.007021918000213258 0.0
0.8550731622448753 -0.00711464102588124 0.0
0.8756568202142722 -0.007195559710736748 0.0
0.8962532995811349 -0.007264435501008144 0.0
0.9168608095529461 -0.007321065851250907 0.0
0.937477540591763 -0.007365284568945988 0.0
0.9581016674536809 -0.007396962097832306 0.0
0.9787313522744439 -0.007416005739141525 0.0
0.9993647476920878 -0.007422359810087039 0.0
1.0199999999973763 -0.007416005739143035 0.0
1.040635252302688 -0.007396962097835225 0.0
1.0612686477204223 -0.007365284568950247 0.0
1.0818983325412956 -0.007321065851256431 0.0
1.102522459403325 -0.007264435501014867 0.0
1.1231391904422532 -0.007195559710744604 0.0
1.1437467004141753 -0.007114641025890169 0.0
1.164343179781149 -0.0070219180002231985 0.0
1.184926837750657 -0.006917664790991766 0.0
1.2054959052598788 -0.0068021906950110666 0.0
1.2260486378957889 -0.006675839627067597 0.0
1.2465833187422515 -0.006538989542184402 0.0
1.2670982611453723 -0.006392051803468524 0.0
1.2875918113885039 -0.006235470497432134 0.0
1.308062351268484 -0.006069721698845722 0.0
1.3285083005648206 -0.005895312687345791 0.0
1.3489281193937297 -0.005712781118179379 0.0
1.3693203104391043 -0.005522694149624119 0.0
1.3896834210527331 -0.005325647529774235 0.0
1.4100160452162511 -0.005122264645530828 0.0
1.430316825357572 -0.004913195536777687 0.0
1.4505844540147468 -0.00469911587886235 0.0
1.4708176753404738 -0.004480725936635271 0.0
1.4910152864406998 -0.0042587494934285975 0.0
1.5111761385410445 -0.004033932758478734 0.0
1.5312991379750027 -0.0038070432564150398 0.0
1.5513832469882072 -0.0035788687025486666 0.0
1.5714274843532494 -0.003350215867802844 0.0
1.5914309257898844 -0.003121909437226438 0.0
1.6113927041856912 -0.0028947908661285 0.0
1.6313120096125793 -0.0026697172379606397 0.0
1.6511880891347868 -0.002447560128158537 0.0
1.671020246404329 -0.002229204478231682 0.0
1.6908078410401106 -0.0020155474844634515 0.0
1.710550287787235 -0.0018074975056500023 0.0
1.7302470554532883 -0.0016059729943683565 0.0
1.7498976656186838 -0.0014119014563194945 0.0
1.769501691118383 -0.0012262184423432777 0.0
1.789058754292626 -0.0010498665777468382 0.0
1.808568525004507 -0.0008837946336288901 0.0
1.8280307184225228 -0.0007289566449174475 0.0
1.847445092566417 -0.0005863110798696137 0.0
1.8668114456149172 -0.0004568200658080899 0.0
1.886129612974133 -0.0003414486758916737 0.0
1.9053994641056144 -0.0002411642817350974 0.0
1.9246208991132296 -0.0001569359767085877 0.0
1.9437938450882233 -8.973407475886147e-05 0.0
1.9629182522119384 -4.052968960215121e-05 0.0
1.9819940896158457 -1.0294399145910046e-05 0.0

CELLS 100 300
2 0 2
2 2 3
2 3 4
2 4 5
2 5 6
2 6 7
2 7 8
2 8 9
2 9 10
2 10 11
2 11 12
2 12 13
2 13 14
2 14 15
2 15 16
2 16 17
2 17 18
2 18 19
2 19 20
2 20 21
2 21 22
2 22 23
2 23 24
2 24 25
2 25 26
2 26 27
2 27 28
2 28 29
2 29 30
2 30 31
2 31 32
2 32 33
2 33 34
2 34 35
2 35 36
2 36 37
2 37 38
2 38 39
2 39 40
2 40 41
2 41 42
2 42 43
2 43 44
2 44 45
2 45 46
2 46 47
2 47 48
2 48 49
2 49 50
2 50 51
2 51 52
2 52 53
2 53 54
2 54 55
2 55 56
2 56 57
2 57 58
2 58 59
2 59 60
2 60 61
2 61 62
2 62 63
2 63 64
2 64 65
2 65 66
2 66 67
2 67 68
2 68 69
2 69 70
2 70 71
2 71 72
2 72 73
2 73 74
2 74 75
2 75 76
2 76 77
2 77 78
2 78 79
2 79 80
2 80 81
2 81 82
2 82 83
2 83 84
2 84 85
2 85 86
2 86 87
2 87 88
2 88 89
2 89 90
2 90 91
2 91 92
2 92 93
2 93 94
2 94 95
2 95 96
2 96 97
2 97 98
2 98 99
2 99 100
2 100 1

CELL_TYPES 100
3
3
3
3
3
3
3
3
3
3
3
3
3
3
3
3
3
3
3
3
3
3
3
3
3
3
3
3
3
3
3
3
3
3
3
3
3
3
3
3
3
3
3
3
3
3
3
3
3
3
3
3
3
3
3
3
3
3
3
3
3
3
3
3
3
3
3
3
3
3
3
3
3
3
3
3
3
3
3
3
3
3
3
3
3
3
3
3
3
3
3
3
3
3
3
3
3
3
3
3

POINT_DATA 101
SCALARS MODE1_129.7118_Hz float 1
LOOKUP_TABLE default
0.017440921832341978
0.0
0.00017579222909343576
0.017454648767402235
0.03408651653507708
0.04990551922648683
0.06491632756269648
0.07912387896685245
0.092533315276368
0.1051500408187359
0.11697979292646944
0.12802871300668378
0.13830341590824888
0.14781105710241743
0.15655939766072438
0.16455686718478058
0.17181262493259128
0.17833661945501716
0.18413964712217293
0.18923340999121144
0.19363057354788382
0.19734482494910216
0.200390932501593
0.20278480723976655
0.2045435676130017
0.20568560846329936
0.20623067566949874
0.20619994805562522
0.20561612840656449
0.20450354569960047
0.20288827093408196
0.20079824920223582
0.19826345085452332
0.19531604471047387
0.19199059615055183
0.18832429244010088
0.1843571965462954
0.18013252866561677
0.17569697118914018
0.1711009872269012
0.16639913424287098
0.16165034185622457
0.15691810557048316
0.15227052577709219
0.14778009491484168
0.143523108922956
0.1395785601829024
0.13602637156227848
0.13294487310931036
0.13040752183992751
0.1284790262712583
0.12721123912259638
0.12663936587360014
0.12677912044578102
0.1276253722036423
0.129152563370621
0.1313168107065372
0.13405927132480921
0.1373101642493914
0.140992836157694
0.14502740036264133
0.14933368017024748
0.15383337629426141
0.15845151163946583
0.16311727791459668
0.16776442991105842
0.1723313637499063
0.17676099139644105
0.18100049628793502
0.18500102993867384
0.18871738922327716
0.19210769898724098
0.19513311403371478
0.1977575474287987
0.19994742752404154
0.20167148334266524
0.2029005564263962
0.20360743646920818
0.20376671777898006
0.20335467361151996
0.20234914558554748
0.20072944563109174
0.19847626819754485
0.19557161072246798
0.19199870062200952
0.18774192730060782
0.18278677788866907
0.17711977560211004
0.17072841977839578
0.16360112678245595
0.15572717109522813
0.1470966260001969
0.13770030337211775
0.1275296921503407
0.11657689515124656
0.10483456394865988
0.09229583164830564
0.0789542435647913
0.06480368630814447
0.049838317674944295
0.03405250998963208

