# vtk DataFile Version 2.0
mesh vtk view
ASCII
DATASET UNSTRUCTURED_GRID
POINTS 101 double
0.006464663673038624 0.0 0.0
2.0 0.0 0.0
0.0199999999999621 6.552805621650289e-05 0.0
0.046464663672834125 0.0002550611734849631 0.0
0.07240052949528872 0.0005580258447166512 0.0
0.09780790231053453 0.0009638589832362334 0.0
0.1226875552703481 0.0014620193791939733 0.0
0.14704093551130426 0.0020420030687557174 0.0
0.17087034976334797 0.002693362215230237 0.0
0.19417912994683206 0.0034057271027312635 0.0
0.2169717788468268 0.004168830845126855 0.0
0.23925409599234015 0.004972536416016756 0.0
0.26103328391251907 0.005806865609403673 0.0
0.2823180349910782 0.006662029545676821 0.0
0.3031185991934548 0.0075284603435762125 0.0
0.32344683299779786 0.008396843586016306 0.0
0.34331622991988303 0.009258151216054581 0.0
0.3627419330831061 0.010103674508936658 0.0
0.381740730346973 0.010925056777043555 0.0
0.4003310325699402 0.01171432547670701 0.0
0.41853283564496985 0.01246392339924708 0.0
0.4363676670079434 0.013166738643191333 0.0
0.45385851737903943 0.013816133080424382 0.0
0.4710297585554913 0.014405969045944223 0.0
0.4879070481296477 0.014930633998911104 0.0
0.5045172220587454 0.015385062921696826 0.0
0.5208881760615796 0.015764758243601417 0.0
0.5370487368620597 0.01606580709671372 0.0
0.5530285243398456 0.016284895732958386 0.0
0.5688578056836286 0.016419320953593455 0.0
0.5845673426727344 0.016466998425191243 0.0
0.6001882332373072 0.01642646777933812 0.0
0.6157517484661058 0.01629689441680706 0.0
0.6312891662436934 0.016078067960668928 0.0
0.6468316027053801 0.01577039732658813 0.0
0.6624098426985157 0.015374902402269946 0.0
0.6780541704325712 0.014893202351559765 0.0
0.6937942014878438 0.014327500581912005 0.0
0.7096587173335926 0.01368056643671902 0.0
0.7256755034810053 0.012955713696191093 0.0
0.741871192364669 0.012156775991984487 0.0
0.7582711120083913 0.011288079261462332 0.0
0.7748991414873857 0.010354411387227577 0.0
0.7917775741492629 0.00936098918627392 0.0
0.8089269895012092 0.008313422930654525 0.0
0.8263661346104816 0.007217678597866957 0.0
0.8441118158002099 0.006080038064104098 0.0
0.8621788013528773 0.0049070574670365226 0.0
0.8805797358600912 0.003705523976796129 0.0
0.8993250667798232 0.0024824112242519633 0.0
0.9184229836815915 0.0012448336444482529 0.0
0.9378793705765983 1.584212365958877e-13 0.0
0.9576977716439677 -0.001244833644136676 0.0
0.9778793705765759 -0.0024824112239504254 0.0
0.998422983681484 -0.0037055239765065094 0.0
1.0193250667796132 -0.004907057466760516 0.0
1.0405797358597864 -0.006080038063843343 0.0
1.0621788013524844 -0.00721767859762284 0.0
1.0841118157997356 -0.008313422930428235 0.0
1.1063661346099338 -0.009360989186066471 0.0
1.1289269895005964 -0.010354411387039693 0.0
1.1517775741485952 -0.011288079261294631 0.0
1.1748991414866723 -0.012156775991837333 0.0
1.198271112007639 -0.012955713696064625 0.0
1.2218711923638872 -0.013680566436613261 0.0
1.245675503480203 -0.014327500581826762 0.0
1.2696587173327756 -0.01489320235149472 0.0
1.293794201487016 -0.015374902402224633 0.0
1.318054170431741 -0.015770397326561963 0.0
1.3424098426976885 -0.016078067960661163 0.0
1.366831602704563 -0.01629689441681685 0.0
1.3912891662428934 -0.016426467779364427 0.0
1.4157517484653281 -0.016466998425232984 0.0
1.4401882332365563 -0.016419320953649442 0.0
1.4645673426720152 -0.016284895733027327 0.0
1.488857805682947 -0.016065807096794223 0.0
1.5130285243392088 -0.01576475824369196 0.0
1.5370487368614731 -0.015385062921795789 0.0
1.5608881760610487 -0.014930633999016795 0.0
1.5845172220582742 -0.014405969046054928 0.0
1.6079070481292403 -0.01381613308053831 0.0
1.631029758555149 -0.013166738643306733 0.0
1.6538585173787639 -0.01246392339936223 0.0
1.6763676670077303 -0.011714325476820369 0.0
1.6985328356448168 -0.010925056777153556 0.0
1.7203310325698433 -0.01010367450904198 0.0
1.7417407303469268 -0.009258151216154094 0.0
1.7627419330830942 -0.008396843586109159 0.0
1.783316229919907 -0.007528460343661593 0.0
1.8034468329978564 -0.006662029545754583 0.0
1.8231185991935381 -0.00580686560947386 0.0
1.8423180349911923 -0.004972536416079155 0.0
1.861033283912673 -0.004168830845181244 0.0
1.8792540959925277 -0.0034057271027776318 0.0
1.8969717788470437 -0.002693362215268689 0.0
1.9141791299470732 -0.0020420030687863977 0.0
1.9308703497636062 -0.001462019379217139 0.0
1.947040935511568 -0.0009638589832525166 0.0
1.9626875552706047 -0.0005580258447269488 0.0
1.9778079023107755 -0.00025506117349034606 0.0
1.9924005294955125 -6.552805621810144e-05 0.0

CELLS 100 300
2 0 2
2 2 3
2 3 4
2 4 5
2 5 6
2 6 7
2 7 8
2 8 9
2 9 10
2 10 11
2 11 12
2 12 13
2 13 14
2 14 15
2 15 16
2 16 17
2 17 18
2 18 19
2 19 20
2 20 21
2 21 22
2 22 23
2 23 24
2 24 25
2 25 26
2 26 27
2 27 28
2 28 29
2 29 30
2 30 31
2 31 32
2 32 33
2 33 34
2 34 35
2 35 36
2 36 37
2 37 38
2 38 39
2 39 40
2 40 41
2 41 42
2 42 43
2 43 44
2 44 45
2 45 46
2 46 47
2 47 48
2 48 49
2 49 50
2 50 51
2 51 52
2 52 53
2 53 54
2 54 55
2 55 56
2 56 57
2 57 58
2 58 59
2 59 60
2 60 61
2 61 62
2 62 63
2 63 64
2 64 65
2 65 66
2 66 67
2 67 68
2 68 69
2 69 70
2 70 71
2 71 72
2 72 73
2 73 74
2 74 75
2 75 76
2 76 77
2 77 78
2 78 79
2 79 80
2 80 81
2 81 82
2 82 83
2 83 84
2 84 85
2 85 86
2 86 87
2 87 88
2 88 89
2 89 90
2 90 91
2 91 92
2 92 93
2 93 94
2 94 95
2 95 96
2 96 97
2 97 98
2 98 99
2 99 100
2 100 1

CELL_TYPES 100
3
3
3
3
3
3
3
3
3
3
3
3
3
3
3
3
3
3
3
3
3
3
3
3
3
3
3
3
3
3
3
3
3
3
3
3
3
3
3
3
3
3
3
3
3
3
3
3
3
3
3
3
3
3
3
3
3
3
3
3
3
3
3
3
3
3
3
3
3
3
3
3
3
3
3
3
3
3
3
3
3
3
3
3
3
3
3
3
3
3
3
3
3
3
3
3
3
3
3
3

POINT_DATA 101
SCALARS MODE2_357.5556_Hz float 1
LOOKUP_TABLE default
0.047286102353484766
0.0
0.0004793082099848857
0.04732289249279532
0.09079607896717243
0.13044744030123204
0.16629345773838583
0.19835541971449408
0.22666049192970483
0.25124299903528763
0.27214563402997044
0.28942057331067067
0.303130505257008
0.3133495906637029
0.3201643827907815
0.32367474736673496
0.3239948413615617
0.321254237574437
0.31559932627401455
0.30719519585862326
0.2962283101390978
0.28291049278157593
0.26748505726513716
0.25023648520851965
0.23150603055078986
0.2117172738193954
0.19141821061477587
0.1713494045367726
0.15254655178134377
0.13646189881932477
0.12499592535092693
0.12016009992093138
0.12318804739416565
0.1337548715469426
0.1502801061321636
0.17088535641256222
0.19399791941435293
0.2184616241007869
0.24344940806200918
0.26835741118693857
0.2927276101193405
0.3161984927004184
0.3384749012078226
0.3593097364677153
0.3784928034263513
0.39584395559251817
0.4112088533097836
0.4244563315533143
0.4354767700591346
0.4441810923721761
0.4505001605194831
0.4543844180641611
0.4558036888522922
0.4547470749400612
0.45122292285996396
0.4452588475936952
0.43690182199175076
0.42621835907771893
0.41329483919324195
0.3982380680120258
0.3811762023684398
0.3622602606429601
0.3416665637464795
0.31960066760191974
0.29630371183872767
0.2720627320181373
0.24722754296174537
0.22223853611374536
0.19767221407101615
0.17431323481026575
0.15325603818223776
0.1360009566975483
0.12439244197580805
0.12010782754406896
0.12371289548688717
0.13419176067221472
0.14959461696982387
0.1679735908406134
0.18780591621959375
0.20799910478357247
0.22777381066635924
0.24655662707871953
0.2639071397230031
0.2794725226704446
0.2929599239605213
0.3041196187529446
0.3127345820074011
0.3186139023381833
0.3215885158604762
0.3215083526661086
0.3182403448518977
0.31166695431271246
0.30168500362644024
0.28820466966532154
0.27114854710049324
0.25045071923417916
0.2260557933533335
0.1979178712015664
0.1659994352650392
0.1302701428608854
0.09070555305491611

