# vtk DataFile Version 2.0
mesh vtk view
ASCII
DATASET UNSTRUCTURED_GRID
POINTS 101 double
-0.0001459058569441878 0.0 0.0
2.0 0.0 0.0
0.0199999999999621 1.4706284493772396e-06 0.0
0.04014590585686553 5.789955657334524e-06 0.0
0.06028486994501162 1.2819153536786548e-05 0.0
0.08041689317299047 2.2419425243808323e-05 0.0
0.10054197786956595 3.4452040247508995e-05 0.0
0.12066012844453214 4.8778382269788035e-05 0.0
0.14077135201484495 6.526000940061819e-05 0.0
0.16087565899603895 8.375872569503622e-05 0.0
0.18097306365898527 0.0001041366635589251 0.0
0.20106358465203386 0.00012625637623189714 0.0
0.2211472454885974 0.00014998093967722543 0.0
0.24122407500028473 0.000175174063190904 0.0
0.26129410775569334 0.000201700208044534 0.0
0.28135738444503866 0.0002294247134799541 0.0
0.3014139522307454 0.0002582139293772003 0.0
0.3214638650642099 0.0002879353549218461 0.0
0.34150718396900875 0.0003184577826028945 0.0
0.3615439772907979 0.00034965144687804187 0.0
0.3815743209142077 0.0003813881768496668 0.0
0.4015982984470801 0.0004135415523021253 0.0
0.4216160013724289 0.0004459870624588955 0.0
0.4416275291685378 0.00047860226682689034 0.0
0.46163298939765807 0.0005112669575048178 0.0
0.4816324977638031 0.0005438633223428363 0.0
0.5016261781401753 0.0005762761083519133 0.0
0.5216141625668099 0.0006083927847733096 0.0
0.5415965912190511 0.0006401037052314033 0.0
0.5615736123475229 0.0006713022684067024 0.0
0.5815453821902969 0.000701885076680329 0.0
0.6015120648579994 0.0007317520922165019 0.0
0.6214738321926379 0.0007608067899655766 0.0
0.6414308636009698 0.0007889563070870101 0.0
0.6613833458632736 0.0008161115883092179 0.0
0.6813314729184187 0.0008421875267615971 0.0
0.7012754456261714 0.0008671030998330585 0.0
0.721215471507705 0.0008907814996311672 0.0
0.7411517644653204 0.0009131502576364255 0.0
0.7610845444824156 0.0009341413631673389 0.0
0.7810140373047749 0.0009536913752935989 0.0
0.8009404741042785 0.0009717415278570544 0.0
0.8208640911261618 0.0009882378272829853 0.0
0.8407851293209813 0.001003131142887608 0.0
0.8607038339624705 0.0010163772894116055 0.0
0.8806204542524899 0.0010279371015338209 0.0
0.9005352429143 0.0010377765001440204 0.0
0.9204484557754029 0.0010458665501787009 0.0
0.9403603513412195 0.0010521835098494267 0.0
0.9602711903608789 0.0010567088711189007 0.0
0.9801812353864175 0.0010594293913059319 0.0
1.0000907503267122 0.0010603371157267196 0.0
1.0199999999974205 0.0010594293913061476 0.0
1.039909249668151 0.0010567088711193177 0.0
1.059818764608535 0.001052183509850035 0.0
1.079728809634184 0.0010458665501794898 0.0
1.0996396486539548 0.0010377765001449808 0.0
1.1195515442198827 0.0010279371015349432 0.0
1.1394647570810972 0.001016377289412881 0.0
1.1593795457430187 0.001003131142889028 0.0
1.1792961660331485 0.0009882378272845378 0.0
1.1992148706747487 0.0009717415278587237 0.0
1.2191359088696792 0.0009536913752953708 0.0
1.2390595258916726 0.0009341413631692001 0.0
1.2589859626912874 0.0009131502576383603 0.0
1.2789154555137578 0.0008907814996331618 0.0
1.298848235530964 0.0008671030998351029 0.0
1.3187845284886897 0.0008421875267636843 0.0
1.3387245543703346 0.0008161115883113396 0.0
1.3586685270781986 0.0007889563070891597 0.0
1.3786166541334552 0.0007608067899677476 0.0
1.3985691363958692 0.0007317520922186896 0.0
1.4185261678043126 0.0007018850766825266 0.0
1.4384879351390623 0.000671302268408907 0.0
1.4584546178068762 0.00064010370523361 0.0
1.4784263876497605 0.0006083927847755138 0.0
1.4984034087783433 0.0005762761083541048 0.0
1.5183858374306956 0.0005438633223450055 0.0
1.5383738218574412 0.0005112669575069522 0.0
1.5583675022339232 0.0004786022668289776 0.0
1.5783670106001788 0.00044598706246091964 0.0
1.5983724708294098 0.0004135415523040713 0.0
1.6183839986256292 0.00038138817685151984 0.0
1.6384017015510877 0.0003496514468797909 0.0
1.6584256790840708 0.00031845778260452596 0.0
1.678456022707591 0.00028793535492335016 0.0
1.698492816029491 0.0002582139293785717 0.0
1.7185361349344 0.00022942471348119374 0.0
1.7385860477679755 0.00020170020804564204 0.0
1.7586426155537933 0.00017517406319189678 0.0
1.7787058922432477 0.0001499809396781197 0.0
1.7987759249987527 0.00012625637623269855 0.0
1.8188527545105255 0.00010413666355963532 0.0
1.8389364153471723 8.375872569565909e-05 0.0
1.8590269363403045 6.526000940115568e-05 0.0
1.8791243410033331 4.877838227023909e-05 0.0
1.8992286479846103 3.445204024787105e-05 0.0
1.9193398715550118 2.2419425244083954e-05 0.0
1.9394580221300732 1.2819153536980209e-05 0.0
1.9595831068267449 5.789955657450172e-06 0.0
1.9797151300548186 1.4706284494157205e-06 0.0

CELLS 100 300
2 0 2
2 2 3
2 3 4
2 4 5
2 5 6
2 6 7
2 7 8
2 8 9
2 9 10
2 10 11
2 11 12
2 12 13
2 13 14
2 14 15
2 15 16
2 16 17
2 17 18
2 18 19
2 19 20
2 20 21
2 21 22
2 22 23
2 23 24
2 24 25
2 25 26
2 26 27
2 27 28
2 28 29
2 29 30
2 30 31
2 31 32
2 32 33
2 33 34
2 34 35
2 35 36
2 36 37
2 37 38
2 38 39
2 39 40
2 40 41
2 41 42
2 42 43
2 43 44
2 44 45
2 45 46
2 46 47
2 47 48
2 48 49
2 49 50
2 50 51
2 51 52
2 52 53
2 53 54
2 54 55
2 55 56
2 56 57
2 57 58
2 58 59
2 59 60
2 60 61
2 61 62
2 62 63
2 63 64
2 64 65
2 65 66
2 66 67
2 67 68
2 68 69
2 69 70
2 70 71
2 71 72
2 72 73
2 73 74
2 74 75
2 75 76
2 76 77
2 77 78
2 78 79
2 79 80
2 80 81
2 81 82
2 82 83
2 83 84
2 84 85
2 85 86
2 86 87
2 87 88
2 88 89
2 89 90
2 90 91
2 91 92
2 92 93
2 93 94
2 94 95
2 95 96
2 96 97
2 97 98
2 98 99
2 99 100
2 100 1

CELL_TYPES 100
3
3
3
3
3
3
3
3
3
3
3
3
3
3
3
3
3
3
3
3
3
3
3
3
3
3
3
3
3
3
3
3
3
3
3
3
3
3
3
3
3
3
3
3
3
3
3
3
3
3
3
3
3
3
3
3
3
3
3
3
3
3
3
3
3
3
3
3
3
3
3
3
3
3
3
3
3
3
3
3
3
3
3
3
3
3
3
3
3
3
3
3
3
3
3
3
3
3
3
3

POINT_DATA 101
SCALARS MODE1_129.7118_Hz float 1
LOOKUP_TABLE default
0.017440921832341978
0.0
0.00017579222909343576
0.017454648767402235
0.03408651653507708
0.04990551922648683
0.06491632756269648
0.07912387896685245
0.092533315276368
0.1051500408187359
0.11697979292646944
0.12802871300668378
0.13830341590824888
0.14781105710241743
0.15655939766072438
0.16455686718478058
0.17181262493259128
0.17833661945501716
0.18413964712217293
0.18923340999121144
0.19363057354788382
0.19734482494910216
0.200390932501593
0.20278480723976655
0.2045435676130017
0.20568560846329936
0.20623067566949874
0.20619994805562522
0.20561612840656449
0.20450354569960047
0.20288827093408196
0.20079824920223582
0.19826345085452332
0.19531604471047387
0.19199059615055183
0.18832429244010088
0.1843571965462954
0.18013252866561677
0.17569697118914018
0.1711009872269012
0.16639913424287098
0.16165034185622457
0.15691810557048316
0.15227052577709219
0.14778009491484168
0.143523108922956
0.1395785601829024
0.13602637156227848
0.13294487310931036
0.13040752183992751
0.1284790262712583
0.12721123912259638
0.12663936587360014
0.12677912044578102
0.1276253722036423
0.129152563370621
0.1313168107065372
0.13405927132480921
0.1373101642493914
0.140992836157694
0.14502740036264133
0.14933368017024748
0.15383337629426141
0.15845151163946583
0.16311727791459668
0.16776442991105842
0.1723313637499063
0.17676099139644105
0.18100049628793502
0.18500102993867384
0.18871738922327716
0.19210769898724098
0.19513311403371478
0.1977575474287987
0.19994742752404154
0.20167148334266524
0.2029005564263962
0.20360743646920818
0.20376671777898006
0.20335467361151996
0.20234914558554748
0.20072944563109174
0.19847626819754485
0.19557161072246798
0.19199870062200952
0.18774192730060782
0.18278677788866907
0.17711977560211004
0.17072841977839578
0.16360112678245595
0.15572717109522813
0.1470966260001969
0.13770030337211775
0.1275296921503407
0.11657689515124656
0.10483456394865988
0.09229583164830564
0.0789542435647913
0.06480368630814447
0.049838317674944295
0.03405250998963208

