# vtk DataFile Version 2.0
mesh vtk view
ASCII
DATASET UNSTRUCTURED_GRID
POINTS 101 double
0.00981993899441687 0.0 0.0
2.0 0.0 0.0
0.0199999999999621 -0.00010010353506423162 0.0
0.03018006100560942 -0.00038518276685316894 0.0
0.041502293366050214 -0.0008324085485086026 0.0
0.05396492364640813 -0.0014190119880831467 0.0
0.06756350226916102 -0.0021223492676262167 0.0
0.08228980162118313 -0.002919986839022822 0.0
0.09813088011738996 -0.003789803688672536 0.0
0.11506831099553919 -0.004710107394247416 0.0
0.13307757393166703 -0.005659760742789758 0.0
0.15212760676778708 -0.006618315742316937 0.0
0.17218051375659602 -0.007566151940438408 0.0
0.19319142577556794 -0.008484616064344006 0.0
0.2151085069675764 -0.009356160117520785 0.0
0.23787310124938083 -0.010164475209898506 0.0
0.2614200111143721 -0.010894618559580694 0.0
0.2856779001623144 -0.011533131285283358 0.0
0.31056980983540483 -0.012068144808073224 0.0
0.33601377994570186 -0.01248947389762682 0.0
0.36192356175948753 -0.012788694630372261 0.0
0.38820941167528744 -0.01295920577257501 0.0
0.4147789529073122 -0.012996272358485016 0.0
0.44153809207702027 -0.01289705049966313 0.0
0.46839197723179676 -0.01266059273395162 0.0
0.4952459835598592 -0.012287833498509967 0.0
0.5220067129603211 -0.011781554588065813 0.0
0.5485829936608506 -0.011146330734131685 0.0
0.5748868662546945 -0.01038845571049447 0.0
0.600834542853943 -0.009515849631894164 0.0
0.6263473265248216 -0.008537948363634142 0.0
0.6513524787796107 -0.00746557619716126 0.0
0.6757840236427004 -0.006310803167813636 0.0
0.6995834776777329 -0.005086788593514417 0.0
0.7227004963494928 -0.0038076125949525193 0.0
0.7450934281874018 -0.0024880975167257723 0.0
0.766729769404943 -0.001143621303275298 0.0
0.7875865128976358 0.0002100750082604648 0.0
0.8076503868767783 0.001557083435071456 0.0
0.8269179797816798 0.002881526539394041 0.0
0.8453957495334056 0.004167753942363125 0.0
0.8630999166315717 0.005400535544881355 0.0
0.8800562420355782 0.006565249172498796 0.0
0.8962996921959215 0.00764806042259529 0.0
0.9118739949930686 0.0086360925808325 0.0
0.9268310916843367 0.009517584588753491 0.0
0.941230491237407 0.010282035184108522 0.0
0.9551385346273227 0.010920331498231007 0.0
0.968627577777841 0.011424860578561069 0.0
0.9817751028247171 0.011789602506948715 0.0
0.9946627682559822 0.01201020400317218 0.0
1.0073754092321479 0.012084031635495355 0.0
1.0199999999984661 0.012010204003213665 0.0
1.0326245907647715 0.011789602507029628 0.0
1.0453372317409537 0.011424860578678926 0.0
1.0582248971722348 0.010920331498382974 0.0
1.0713724222191086 0.010282035184291367 0.0
1.0848614653696067 0.009517584588963724 0.0
1.0987695087594878 0.00863609258106644 0.0
1.113168908312511 0.007648060422849041 0.0
1.1281260050037194 0.006565249172768391 0.0
1.1437003078008 0.005400535545162676 0.0
1.1599437579610714 0.004167753942652104 0.0
1.1769000833650032 0.0028815265396867663 0.0
1.1946042504630972 0.001557083435363991 0.0
1.2130820202147534 0.0002100750085491151 0.0
1.232349613119591 -0.0011436213029939837 0.0
1.2524134870986772 -0.002488097516454917 0.0
1.273270230591325 -0.0038076125946950633 0.0
1.2949065718088328 -0.005086788593272892 0.0
1.317299503646722 -0.006310803167590226 0.0
1.3404165223184765 -0.007465576196957671 0.0
1.3642159763535198 -0.008537948363451823 0.0
1.3886475212166367 -0.009515849631734088 0.0
1.4136526734714707 -0.010388455710357208 0.0
1.4391654571424117 -0.011146330734017338 0.0
1.4651131337417425 -0.011781554587974124 0.0
1.4914170063356873 -0.012287833498440249 0.0
1.5179932870363355 -0.012660592733902788 0.0
1.5447540164369327 -0.012897050499633791 0.0
1.5716080227651459 -0.012996272358473478 0.0
1.5984619079200866 -0.012959205772579339 0.0
1.6252210470899713 -0.012788694630390325 0.0
1.6517905883221788 -0.012489473897656414 0.0
1.678076438238168 -0.012068144808112049 0.0
1.7039862200521472 -0.011533131285329233 0.0
1.729430190162628 -0.010894618559631626 0.0
1.7543220998358984 -0.010164475209952529 0.0
1.7785799888840306 -0.009356160117575903 0.0
1.8021268987492154 -0.008484616064398936 0.0
1.8248914930311932 -0.007566151940492144 0.0
1.846808574223365 -0.0066183157423681475 0.0
1.8678194862424908 -0.005659760742837069 0.0
1.887872393231443 -0.004710107394289739 0.0
1.9069224260676998 -0.003789803688709012 0.0
1.9249316890039536 -0.0029199868390527694 0.0
1.9418691198822151 -0.0021223492676492014 0.0
1.9577101983785261 -0.0014190119880993655 0.0
1.9724364977306466 -0.0008324085485187598 0.0
1.986035076353486 -0.0003851827668583501 0.0
1.9984977066339182 -0.00010010353506572662 0.0

CELLS 100 300
2 0 2
2 2 3
2 3 4
2 4 5
2 5 6
2 6 7
2 7 8
2 8 9
2 9 10
2 10 11
2 11 12
2 12 13
2 13 14
2 14 15
2 15 16
2 16 17
2 17 18
2 18 19
2 19 20
2 20 21
2 21 22
2 22 23
2 23 24
2 24 25
2 25 26
2 26 27
2 27 28
2 28 29
2 29 30
2 30 31
2 31 32
2 32 33
2 33 34
2 34 35
2 35 36
2 36 37
2 37 38
2 38 39
2 39 40
2 40 41
2 41 42
2 42 43
2 43 44
2 44 45
2 45 46
2 46 47
2 47 48
2 48 49
2 49 50
2 50 51
2 51 52
2 52 53
2 53 54
2 54 55
2 55 56
2 56 57
2 57 58
2 58 59
2 59 60
2 60 61
2 61 62
2 62 63
2 63 64
2 64 65
2 65 66
2 66 67
2 67 68
2 68 69
2 69 70
2 70 71
2 71 72
2 72 73
2 73 74
2 74 75
2 75 76
2 76 77
2 77 78
2 78 79
2 79 80
2 80 81
2 81 82
2 82 83
2 83 84
2 84 85
2 85 86
2 86 87
2 87 88
2 88 89
2 89 90
2 90 91
2 91 92
2 92 93
2 93 94
2 94 95
2 95 96
2 96 97
2 97 98
2 98 99
2 99 100
2 100 1

CELL_TYPES 100
3
3
3
3
3
3
3
3
3
3
3
3
3
3
3
3
3
3
3
3
3
3
3
3
3
3
3
3
3
3
3
3
3
3
3
3
3
3
3
3
3
3
3
3
3
3
3
3
3
3
3
3
3
3
3
3
3
3
3
3
3
3
3
3
3
3
3
3
3
3
3
3
3
3
3
3
3
3
3
3
3
3
3
3
3
3
3
3
3
3
3
3
3
3
3
3
3
3
3
3

POINT_DATA 101
SCALARS MODE3_700.9519_Hz float 1
LOOKUP_TABLE default
0.09118681450882947
0.0
0.0009295498158155557
0.09125693601064871
0.17194138989559998
0.24211752563866326
0.3018456195523431
0.35122073437955076
0.39038123783074025
0.41951665093360097
0.4388743930953513
0.44876556566007236
0.44957009940729364
0.4417418422101094
0.4258146254729908
0.40241127590314535
0.37225952663006556
0.3362233383824324
0.2953693905861641
0.25111848097084255
0.20561646596266256
0.16269096357570562
0.13005623241157516
0.12060917064520164
0.14104640074252445
0.18183052404251954
0.23179405068947723
0.284885748156236
0.3380129956007315
0.3893445356842922
0.43761754145211396
0.481865977848573
0.5213081994526352
0.5552979004957344
0.58330211230909
0.6048914241579987
0.6197358915010641
0.6276035512351726
0.6283600213816724
0.6219684288907779
0.608489336141778
0.588080632926178
0.5609976509681489
0.5275941663325547
0.4883256894815294
0.44375796608272994
0.3945871023280649
0.34168649718283334
0.28622005613700674
0.22993578233921122
0.17600162206852357
0.13146020517385276
0.11152536133645088
0.12913436181892646
0.17260862676025518
0.22620397121191704
0.28245858967885845
0.3380496750468379
0.39117005490412865
0.4406290395314782
0.4855384304692499
0.525192157677721
0.5590165711177802
0.5865491445438971
0.6074294550163418
0.6213956605478821
0.6282834004729654
0.6280256487835765
0.6206528188984243
0.6062928400991003
0.5851712192088566
0.5576113922732329
0.5240360817914851
0.484971103285711
0.44105453413311424
0.39305739517941934
0.341929711109961
0.28890568184874604
0.23575651173351375
0.18543283235797672
0.1436548697217123
0.12118229539431824
0.1282696381178451
0.1594916285155639
0.20182602167624572
0.2471426943059258
0.29140944675391245
0.3323935451355953
0.368633604795372
0.3990407355651612
0.4227365221140091
0.43898222122037955
0.4471455589731115
0.44668394946773293
0.4371350665049449
0.4181105778211253
0.3892909677624317
0.35042035767251717
0.30130072125215007
0.24178515649550936
0.1717700734856661

