# vtk DataFile Version 2.0
mesh vtk view
ASCII
DATASET UNSTRUCTURED_GRID
POINTS 101 double
5.605223052421783e-05 0.0 0.0
2.0 0.0 0.0
0.0199999999999621 -5.649670724796962e-07 0.0
0.039943947769404624 -2.2243104972444e-06 0.0
0.059890562338046904 -4.924697090112885e-06 0.0
0.07983984335683364 -8.612805669510573e-06 0.0
0.09979178993113279 -1.3235340529149174e-05 0.0
0.1197464003668519 -1.8739049854904006e-05 0.0
0.1397036719298976 -2.507074881912814e-05 0.0
0.15966360061896154 -3.2177347085860616e-05 0.0
0.17962618095163785 -4.000588046073401e-05 0.0
0.19959140576384368 -4.850354641985607e-05 0.0
0.21955926602249917 -5.761774325256886e-05 0.0
0.23952975065144644 -6.729611255381116e-05 0.0
0.2595028463705532 -7.74865848028126e-05 0.0
0.27947853754797775 -8.813742776608632e-05 0.0
0.29945680606548136 -9.919729746409625e-05 0.0
0.3194376311967151 -0.00011061529144268753 0.0
0.33942098949842836 -0.0001223410040923358 0.0
0.35940685471446837 -0.00013432458376045275 0.0
0.3793951976924568 -0.00014651679140448122 0.0
0.3993859863130106 -0.00015886906053628967 0.0
0.41937918543136554 -0.00017133355821144446 0.0
0.4393747568312375 -0.00018386324682030382 0.0
0.45937265919074755 -0.00019641194644155085 0.0
0.47937284806022057 -0.0002089343975227649 0.0
0.4993752758516465 -0.00022138632365692218 0.0
0.5193798918395875 -0.00023372449422832695 0.0
0.5393866421732879 -0.0002459067867063927 0.0
0.5593954698997348 -0.0002578922483709274 0.0
0.5794063149974003 -0.0002696411572581268 0.0
0.5994191144203804 -0.00028111508212232876 0.0
0.619433802152629 -0.0002922769412147472 0.0
0.6394503092719716 -0.00030309105968686126 0.0
0.6594685640235697 -0.00031352322543289 0.0
0.6794884919024891 -0.0003235407431928224 0.0
0.6995100157450151 -0.0003331124867447976 0.0
0.7195330558283399 -0.00034220894902321325 0.0
0.739557529978236 -0.0003508022900068009 0.0
0.7595833536843184 -0.00035886638222900827 0.0
0.7796104402224827 -0.000366376853771362 0.0
0.7996387007840972 -0.00037331112860907 0.0
0.8196680446115142 -0.0003796484641868957 0.0
0.8396983791394562 -0.0003853699861123304 0.0
0.8597296101418234 -0.0003904587198622591 0.0
0.8797616418834583 -0.00039489961940867457 0.0
0.8997943772763983 -0.0003986795926784871 0.0
0.9198277180401324 -0.0004017875237721443 0.0
0.939861564865382 -0.0004042142918755365 0.0
0.9598958175809094 -0.0004059527868095704 0.0
0.9799303753228589 -0.0004069979211717601 0.0
0.9999651367061516 -0.00040734663903426273 0.0
1.0199999999973866 -0.0004069979211728892 0.0
1.0400348632886443 -0.0004059527868118144 0.0
1.0600696246720274 -0.00040421429187887373 0.0
1.0801041824140882 -0.0004017875237765453 0.0
1.1001384351297283 -0.0003986795926839155 0.0
1.1201722819550912 -0.00039489961941508757 0.0
1.1402056227189388 -0.0003904587198696081 0.0
1.1602383581119926 -0.0003853699861205613 0.0
1.1802703898537406 -0.00037964846419594905 0.0
1.200301620856222 -0.0003733111286188807 0.0
1.2203319553842784 -0.0003663768537818619 0.0
1.2403612992118092 -0.0003588663822401265 0.0
1.2603895597735388 -0.0003508022900184628 0.0
1.280416646311818 -0.000342208949035342 0.0
1.3004424700180155 -0.00033311248675731516 0.0
1.3204669441680257 -0.0003235407432056495 0.0
1.3404899842514657 -0.00031352322544594605 0.0
1.360511508094107 -0.0003030910597000672 0.0
1.3805314359731418 -0.00029227694122802456 0.0
1.4005496907248538 -0.000281115082135601 0.0
1.4205661978443116 -0.00026964115727131857 0.0
1.440580885576675 -0.00025789224838396717 0.0
1.46059368499977 -0.0002459067867192126 0.0
1.4806045300975492 -0.00023372449424086385 0.0
1.5006133578241105 -0.00022138632366911577 0.0
1.520620108157925 -0.00020893439753456037 0.0
1.54062472414598 -0.00019641194645289768 0.0
1.5606271519375188 -0.00018386324683115736 0.0
1.5806273408071054 -0.0001713335582217642 0.0
1.6006252431667287 -0.0001588690605460414 0.0
1.6206208145667136 -0.00014651679141363638 0.0
1.6406140136851803 -0.00013432458376898913 0.0
1.6606048023058466 -0.00012234100410023503 0.0
1.6805931452839469 -0.00011061529144993759 0.0
1.700579010500099 -9.919729747068981e-05 0.0
1.720562368801923 -8.813742777202235e-05 0.0
1.7405431939332683 -7.748658480809673e-05 0.0
1.760521462450883 -6.729611255846094e-05 0.0
1.7804971536284162 -5.761774325660652e-05 0.0
1.8004702493476188 -4.850354642330419e-05 0.0
1.8204407339766506 -4.0005880463618606e-05 0.0
1.8404085942353883 -3.217734708821417e-05 0.0
1.8603738190476762 -2.5070748820988688e-05 0.0
1.8803363993804332 -1.8739049856314567e-05 0.0
1.9002963280695786 -1.323534053015843e-05 0.0
1.9202535996327106 -8.612805670175844e-06 0.0
1.9402082100685227 -4.924697090498874e-06 0.0
1.9601601566429152 -2.2243104974222157e-06 0.0
1.9801094376617938 -5.649670725258732e-07 0.0

CELLS 100 300
2 0 2
2 2 3
2 3 4
2 4 5
2 5 6
2 6 7
2 7 8
2 8 9
2 9 10
2 10 11
2 11 12
2 12 13
2 13 14
2 14 15
2 15 16
2 16 17
2 17 18
2 18 19
2 19 20
2 20 21
2 21 22
2 22 23
2 23 24
2 24 25
2 25 26
2 26 27
2 27 28
2 28 29
2 29 30
2 30 31
2 31 32
2 32 33
2 33 34
2 34 35
2 35 36
2 36 37
2 37 38
2 38 39
2 39 40
2 40 41
2 41 42
2 42 43
2 43 44
2 44 45
2 45 46
2 46 47
2 47 48
2 48 49
2 49 50
2 50 51
2 51 52
2 52 53
2 53 54
2 54 55
2 55 56
2 56 57
2 57 58
2 58 59
2 59 60
2 60 61
2 61 62
2 62 63
2 63 64
2 64 65
2 65 66
2 66 67
2 67 68
2 68 69
2 69 70
2 70 71
2 71 72
2 72 73
2 73 74
2 74 75
2 75 76
2 76 77
2 77 78
2 78 79
2 79 80
2 80 81
2 81 82
2 82 83
2 83 84
2 84 85
2 85 86
2 86 87
2 87 88
2 88 89
2 89 90
2 90 91
2 91 92
2 92 93
2 93 94
2 94 95
2 95 96
2 96 97
2 97 98
2 98 99
2 99 100
2 100 1

CELL_TYPES 100
3
3
3
3
3
3
3
3
3
3
3
3
3
3
3
3
3
3
3
3
3
3
3
3
3
3
3
3
3
3
3
3
3
3
3
3
3
3
3
3
3
3
3
3
3
3
3
3
3
3
3
3
3
3
3
3
3
3
3
3
3
3
3
3
3
3
3
3
3
3
3
3
3
3
3
3
3
3
3
3
3
3
3
3
3
3
3
3
3
3
3
3
3
3
3
3
3
3
3
3

POINT_DATA 101
SCALARS MODE1_224.6674_Hz float 1
LOOKUP_TABLE default
0.009839986425673712
0.0
9.918014452165108e-05
0.00984773101890709
0.01923125756804173
0.028156174108346914
0.036625115811995256
0.04464086832169539
0.05220633260855651
0.05932455773785581
0.06599878065282873
0.07223246627140016
0.0780293466223999
0.08339345874816122
0.08832918136440242
0.09284127036454158
0.09693489330653715
0.1006156630591818
0.10388967082203092
0.10676351877379099
0.10924435264962322
0.11133989460088553
0.1130584767524032
0.11440907594405157
0.11540135022666352
0.11604567777848329
0.11635319901867187
0.11633586281913459
0.11600647785461882
0.11537877028068445
0.11446744908359988
0.11328828059331027
0.11185817376935527
0.1101952779246214
0.10831909448671845
0.10625060412339346
0.1040124099434102
0.10162889633141109
0.09912640100617362
0.09653339472872684
0.09388065825194664
0.09120143905313052
0.08853156063396117
0.08590944452592014
0.08337599020785517
0.08097424305393883
0.07874876974297165
0.07674466192433452
0.07500611259531875
0.07357456543914777
0.07248652832715774
0.07177125602346124
0.07144861109297548
0.0715274591665484
0.07200490559309085
0.07286653094130159
0.07408757674419197
0.07563484445809539
0.07746896438320575
0.0795466895133747
0.0818229486118914
0.08425250682316024
0.08679118850547873
0.0893966923627198
0.09202906909452234
0.09465094384422923
0.09722756034503739
0.09972671012242305
0.10211859462184507
0.10437565403648759
0.10647238523385957
0.10838516268797674
0.1100920703434043
0.1115727483279259
0.11280825586717523
0.11378095020178221
0.11447438043331021
0.1148731947905329
0.11496305964658836
0.11473058861955117
0.11416328018151412
0.11324946233889537
0.1119782431011355
0.11033946561003322
0.10832366694849166
0.10592203978109783
0.10312639609800055
0.09992913243800174
0.0963231960575093
0.09230205159027531
0.0878596478101663
0.08299038416712497
0.07768907681659518
0.0719509239068133
0.0657714699290416
0.05914656897777683
0.0520723468227977
0.04454516179784064
0.036561564791962646
0.028118259694848737
0.019212071430569036

