# vtk DataFile Version 2.0
mesh vtk view
ASCII
DATASET UNSTRUCTURED_GRID
POINTS 101 double
0.0005044700747179619 0.0 0.0
2.0 0.0 0.0
0.0199999999999621 -5.08470365231728e-06 0.0
0.039495529925245354 -2.001879447519965e-05 0.0
0.059015061043335613 -4.4322273811016083e-05 0.0
0.07855859021275625 -7.751525102559536e-05 0.0
0.09812610938180488 -0.00011911806476234289 0.0
0.11771760330361836 -0.00016865144869413653 0.0
0.1373330473713161 -0.00022563673937215387 0.0
0.15697240557313788 -0.0002895961237727463 0.0
0.1766356285674695 -0.00036005292414660703 0.0
0.19632265187756667 -0.0004365319177787058 0.0
0.21603339420571185 -0.0005185596892731211 0.0
0.23576775586649723 -0.000605665012984302 0.0
0.25552561733881507 -0.0006973792632253153 0.0
0.2753068379360867 -0.000793236849894779 0.0
0.29511125459408655 -0.0008927756771768687 0.0
0.31493868077565756 -0.0009955376229841904 0.0
0.3347889054915435 -0.001101069036831025 0.0
0.35466169243637136 -0.001208921253844078 0.0
0.37455677923873343 -0.0013186511226403346 0.0
0.39447387682418483 -0.0014298215448266109 0.0
0.41441266888984657 -0.0015420020239030044 0.0
0.43437281148916074 -0.001654769221382739 0.0
0.4543539327252193 -0.0017677075179739624 0.0
0.4743556325509424 -0.0018804095777048891 0.0
0.4943774826742431 -0.001992476912912305 0.0
0.5144190265661803 -0.0021035204480549484 0.0
0.5344797795699509 -0.00221316108035754 0.0
0.5545592291084388 -0.002321030235338353 0.0
0.5746568349878952 -0.002426770415323148 0.0
0.5947720297951841 -0.0025300357391009657 0.0
0.6149042193858887 -0.002630492470932732 0.0
0.635052783460439 -0.0027278195371817585 0.0
0.6552170762252878 -0.0028217090288960175 0.0
0.6753964271360295 -0.00291186668873541 0.0
0.6955901417192317 -0.0029980123807031864 0.0
0.7157975024696219 -0.003079880541208927 0.0
0.7360177698191533 -0.0031572206100612165 0.0
0.7562501831743612 -0.0032297974400610835 0.0
0.776493962018307 -0.003297391683942267 0.0
0.7967483070733054 -0.003359800157481639 0.0
0.8170124015205259 -0.0034168361776820704 0.0
0.8372854122724707 -0.003468329875010983 0.0
0.8575664912942411 -0.0035141284787603413 0.0
0.8778547769694233 -0.0035540965746780804 0.0
0.8981493955063499 -0.0035881163341063937 0.0
0.9184494623804245 -0.003616087713949308 0.0
0.9387540838081382 -0.0036379286268798383 0.0
0.959062358248351 -0.0036535750812861432 0.0
0.979373377926363 -0.0036629812905458504 0.0
0.9996862303762907 -0.0036661197513083743 0.0
1.01999999999716 -0.003662981290556013 0.0
1.0403137696180544 -0.0036535750813063393 0.0
1.060626622068078 -0.0036379286269098733 0.0
1.08093764174621 -0.0036160877139889175 0.0
1.1012459161865473 -0.0035881163341552487 0.0
1.1215505376143888 -0.0035540965747357977 0.0
1.1418506044885934 -0.0035141284788264824 0.0
1.162145223025653 -0.003468329875085061 0.0
1.1824335087009696 -0.0034168361777635503 0.0
1.202714587722878 -0.0033598001575699354 0.0
1.2229875984749623 -0.0032973916840367662 0.0
1.2432516929223234 -0.003229797440161147 0.0
1.2635060379774647 -0.0031572206101661737 0.0
1.2837498168215546 -0.003079880541318086 0.0
1.303982230176907 -0.0029980123808158446 0.0
1.3242024975265831 -0.0029118666888508535 0.0
1.3444098582771196 -0.002821709029013522 0.0
1.3646035728604682 -0.0027278195373006127 0.0
1.3847829237713558 -0.002630492471052228 0.0
1.4049472165363488 -0.002530035739220416 0.0
1.425095780611044 -0.002426770415441874 0.0
1.4452279702018922 -0.0023210302354557105 0.0
1.4653431650093234 -0.0022131610804729195 0.0
1.4854407708889192 -0.0021035204481677804 0.0
1.5055202204275457 -0.0019924769130220473 0.0
1.5255809734314532 -0.0018804095778110483 0.0
1.5456225173235254 -0.0017677075180760839 0.0
1.565644367446958 -0.0016547692214804208 0.0
1.5856460672728117 -0.0015420020239958819 0.0
1.6056271885089983 -0.0014298215449143766 0.0
1.6255873311084381 -0.001318651122722731 0.0
1.6455261231742222 -0.0012089212539209055 0.0
1.6654432207597947 -0.0011010690369021182 0.0
1.6853383075622752 -0.000995537623049441 0.0
1.7052110945072196 -0.0008927756772362107 0.0
1.725061319223219 -0.0007932368499482033 0.0
1.7448887454049016 -0.0006973792632728725 0.0
1.76469316206301 -0.0006056650130261501 0.0
1.7844743826603857 -0.00051855968930946 0.0
1.8042322441327927 -0.00043653191780973884 0.0
1.8239666057936543 -0.0003600529241725684 0.0
1.843677348121871 -0.00028959612379392827 0.0
1.8633643714320371 -0.0002256367393888988 0.0
1.8830275944264343 -0.00016865144870683153 0.0
1.90266695262832 -0.00011911806477142619 0.0
1.9222823966960838 -7.75152510315828e-05 0.0
1.9418738906179676 -4.432227381448999e-05 0.0
1.9614414097870845 -2.0018794476799995e-05 0.0
1.9809849389565697 -5.084703652732872e-06 0.0

CELLS 100 300
2 0 2
2 2 3
2 3 4
2 4 5
2 5 6
2 6 7
2 7 8
2 8 9
2 9 10
2 10 11
2 11 12
2 12 13
2 13 14
2 14 15
2 15 16
2 16 17
2 17 18
2 18 19
2 19 20
2 20 21
2 21 22
2 22 23
2 23 24
2 24 25
2 25 26
2 26 27
2 27 28
2 28 29
2 29 30
2 30 31
2 31 32
2 32 33
2 33 34
2 34 35
2 35 36
2 36 37
2 37 38
2 38 39
2 39 40
2 40 41
2 41 42
2 42 43
2 43 44
2 44 45
2 45 46
2 46 47
2 47 48
2 48 49
2 49 50
2 50 51
2 51 52
2 52 53
2 53 54
2 54 55
2 55 56
2 56 57
2 57 58
2 58 59
2 59 60
2 60 61
2 61 62
2 62 63
2 63 64
2 64 65
2 65 66
2 66 67
2 67 68
2 68 69
2 69 70
2 70 71
2 71 72
2 72 73
2 73 74
2 74 75
2 75 76
2 76 77
2 77 78
2 78 79
2 79 80
2 80 81
2 81 82
2 82 83
2 83 84
2 84 85
2 85 86
2 86 87
2 87 88
2 88 89
2 89 90
2 90 91
2 91 92
2 92 93
2 93 94
2 94 95
2 95 96
2 96 97
2 97 98
2 98 99
2 99 100
2 100 1

CELL_TYPES 100
3
3
3
3
3
3
3
3
3
3
3
3
3
3
3
3
3
3
3
3
3
3
3
3
3
3
3
3
3
3
3
3
3
3
3
3
3
3
3
3
3
3
3
3
3
3
3
3
3
3
3
3
3
3
3
3
3
3
3
3
3
3
3
3
3
3
3
3
3
3
3
3
3
3
3
3
3
3
3
3
3
3
3
3
3
3
3
3
3
3
3
3
3
3
3
3
3
3
3
3

POINT_DATA 101
SCALARS MODE1_224.6674_Hz float 1
LOOKUP_TABLE default
0.009839986425673712
0.0
9.918014452165108e-05
0.00984773101890709
0.01923125756804173
0.028156174108346914
0.036625115811995256
0.04464086832169539
0.05220633260855651
0.05932455773785581
0.06599878065282873
0.07223246627140016
0.0780293466223999
0.08339345874816122
0.08832918136440242
0.09284127036454158
0.09693489330653715
0.1006156630591818
0.10388967082203092
0.10676351877379099
0.10924435264962322
0.11133989460088553
0.1130584767524032
0.11440907594405157
0.11540135022666352
0.11604567777848329
0.11635319901867187
0.11633586281913459
0.11600647785461882
0.11537877028068445
0.11446744908359988
0.11328828059331027
0.11185817376935527
0.1101952779246214
0.10831909448671845
0.10625060412339346
0.1040124099434102
0.10162889633141109
0.09912640100617362
0.09653339472872684
0.09388065825194664
0.09120143905313052
0.08853156063396117
0.08590944452592014
0.08337599020785517
0.08097424305393883
0.07874876974297165
0.07674466192433452
0.07500611259531875
0.07357456543914777
0.07248652832715774
0.07177125602346124
0.07144861109297548
0.0715274591665484
0.07200490559309085
0.07286653094130159
0.07408757674419197
0.07563484445809539
0.07746896438320575
0.0795466895133747
0.0818229486118914
0.08425250682316024
0.08679118850547873
0.0893966923627198
0.09202906909452234
0.09465094384422923
0.09722756034503739
0.09972671012242305
0.10211859462184507
0.10437565403648759
0.10647238523385957
0.10838516268797674
0.1100920703434043
0.1115727483279259
0.11280825586717523
0.11378095020178221
0.11447438043331021
0.1148731947905329
0.11496305964658836
0.11473058861955117
0.11416328018151412
0.11324946233889537
0.1119782431011355
0.11033946561003322
0.10832366694849166
0.10592203978109783
0.10312639609800055
0.09992913243800174
0.0963231960575093
0.09230205159027531
0.0878596478101663
0.08299038416712497
0.07768907681659518
0.0719509239068133
0.0657714699290416
0.05914656897777683
0.0520723468227977
0.04454516179784064
0.036561564791962646
0.028118259694848737
0.019212071430569036

