# vtk DataFile Version 2.0
mesh vtk view
ASCII
DATASET UNSTRUCTURED_GRID
POINTS 101 double
-0.0007286789968148339 0.0 0.0
2.0 0.0 0.0
0.0199999999999621 7.3445719422360715e-06 0.0
0.04072867899668335 2.891603646417728e-05 0.0
0.061422689603791665 6.402106217146768e-05 0.0
0.08208203635896906 0.00011196647370363778 0.0
0.10270673089245663 0.00017205942687893976 0.0
0.12329679522751061 0.00024360764811375278 0.0
0.14385226490741523 0.00032591973464866675 0.0
0.16437319194915295 0.00041830551211618925 0.0
0.1848596476239325 0.0005200764459895436 0.0
0.20531172506482848 0.0006305461034581307 0.0
0.22572954170187703 0.0007490306622833973 0.0
0.24611324152510755 0.0008748494631995475 0.0
0.266462997176095 0.0010073256024365667 0.0
0.28677901186878707 0.0011457865609591255 0.0
0.30706152114042223 0.001289564867033255 0.0
0.32731079443356587 0.001437998788754942 0.0
0.3475271365104769 0.00159043305320037 0.0
0.36771088870113816 0.0017462195888858908 0.0
0.38786242998647275 0.0019047182882582614 0.0
0.4079821779184556 0.0020652977869717714 0.0
0.42807058937902376 0.0022273362567487845 0.0
0.44812816117987175 0.0023902222086639563 0.0
0.468155430505422 0.002553355303740168 0.0
0.4881529752014574 0.0027161471677959515 0.0
0.5081214139121024 0.0028780222075399965 0.0
0.5280614060680502 0.003038418424968259 0.0
0.5479736517291278 0.0031967882271831142 0.0
0.5678588912845027 0.0033525992288220663 0.0
0.5877179050140342 0.0035053350443556585 0.0
0.607551512514474 0.003654496067590284 0.0
0.6273605719944246 0.003799600235791725 0.0
0.6471459794421536 0.003940183775929207 0.0
0.6669086676705629 0.0040758019306275815 0.0
0.6866496052437933 0.004206029661506704 0.0
0.706369795290136 0.004330462327682381 0.0
0.7260702742060963 0.004448716337301785 0.0
0.7457521102566306 0.004560429770088425 0.0
0.7654164020767434 0.004665262968977121 0.0
0.7850642770797901 0.00476289909902772 0.0
0.8046968897779828 0.004853044671917923 0.0
0.8243154200207438 0.004935430034429658 0.0
0.8439210711566808 0.00500980981946031 0.0
0.8635150681250922 0.0050759633582093825 0.0
0.8830986554830197 0.005133695052312784 0.0
0.9026730953739831 0.005182834704820348 0.0
0.9222396654446212 0.00522323780903789 0.0
0.9417996567155587 0.0052547857943819895 0.0
0.9613543714128866 0.00527738622852443 0.0
0.9809051207667265 0.005290972975232896 0.0
1.0004532227834082 0.00529550630744543 0.0
1.0199999999977831 0.005290972975247575 0.0
1.0395467772121767 0.0052773862285536025 0.0
1.0590948792289385 0.005254785794425373 0.0
1.078645628582875 0.005223237809095104 0.0
1.0982003432802954 0.0051828347048909155 0.0
1.1177603345513205 0.005133695052396153 0.0
1.1373269046220431 0.00507596335830492 0.0
1.156901344513087 0.00500980981956731 0.0
1.1764849318710897 0.004935430034547351 0.0
1.1960789288395743 0.004853044672045463 0.0
1.2156845799755815 0.004762899099164219 0.0
1.2353031102184096 0.004665262969121658 0.0
1.2549357229166684 0.004560429770240029 0.0
1.2745835979197795 0.004448716337459458 0.0
1.294247889739955 0.004330462327845109 0.0
1.31392972579055 0.004206029661673456 0.0
1.3336302047065716 0.00407580193079731 0.0
1.353350394752975 0.003940183776100886 0.0
1.3730913323262672 0.00379960023596433 0.0
1.3928540205547375 0.0036544960677628237 0.0
1.4126394280025298 0.0035053350445271515 0.0
1.432448487482545 0.0033525992289915826 0.0
1.452282094983052 0.003196788227349773 0.0
1.4721411087126517 0.0030384184251312386 0.0
1.4920263482680987 0.0028780222076985134 0.0
1.5119385939292507 0.0027161471679492924 0.0
1.531878586085276 0.002553355303887677 0.0
1.5518470247960003 0.0023902222088050527 0.0
1.5718445694921195 0.0022273362568829406 0.0
1.5918718388177568 0.002065297787098544 0.0
1.6119294106186957 0.0019047182883772783 0.0
1.6320178220793569 0.001746219588996864 0.0
1.6521375700114374 0.00159043305330306 0.0
1.6722891112968727 0.0014379987888491926 0.0
1.6924728634876383 0.0012895648671189712 0.0
1.7126892055646552 0.0011457865610362938 0.0
1.7329384788579099 0.0010073256025052604 0.0
1.7532209881296605 0.0008748494632599947 0.0
1.7735370028224695 0.0007490306623358869 0.0
1.7938867584735643 0.0006305461035029562 0.0
1.814270458296894 0.0005200764460270434 0.0
1.8346882749340436 0.0004183055121467854 0.0
1.8551403523750445 0.0003259197346728539 0.0
1.8756268080499312 0.00024360764813209006 0.0
1.8961477350917813 0.00017205942689206007 0.0
1.9167032047718073 0.0001119664737122863 0.0
1.9372932691069942 6.402106217648555e-05 0.0
1.957917963640619 2.891603646648889e-05 0.0
1.9785773103959363 7.344571942836372e-06 0.0

CELLS 100 300
2 0 2
2 2 3
2 3 4
2 4 5
2 5 6
2 6 7
2 7 8
2 8 9
2 9 10
2 10 11
2 11 12
2 12 13
2 13 14
2 14 15
2 15 16
2 16 17
2 17 18
2 18 19
2 19 20
2 20 21
2 21 22
2 22 23
2 23 24
2 24 25
2 25 26
2 26 27
2 27 28
2 28 29
2 29 30
2 30 31
2 31 32
2 32 33
2 33 34
2 34 35
2 35 36
2 36 37
2 37 38
2 38 39
2 39 40
2 40 41
2 41 42
2 42 43
2 43 44
2 44 45
2 45 46
2 46 47
2 47 48
2 48 49
2 49 50
2 50 51
2 51 52
2 52 53
2 53 54
2 54 55
2 55 56
2 56 57
2 57 58
2 58 59
2 59 60
2 60 61
2 61 62
2 62 63
2 63 64
2 64 65
2 65 66
2 66 67
2 67 68
2 68 69
2 69 70
2 70 71
2 71 72
2 72 73
2 73 74
2 74 75
2 75 76
2 76 77
2 77 78
2 78 79
2 79 80
2 80 81
2 81 82
2 82 83
2 83 84
2 84 85
2 85 86
2 86 87
2 87 88
2 88 89
2 89 90
2 90 91
2 91 92
2 92 93
2 93 94
2 94 95
2 95 96
2 96 97
2 97 98
2 98 99
2 99 100
2 100 1

CELL_TYPES 100
3
3
3
3
3
3
3
3
3
3
3
3
3
3
3
3
3
3
3
3
3
3
3
3
3
3
3
3
3
3
3
3
3
3
3
3
3
3
3
3
3
3
3
3
3
3
3
3
3
3
3
3
3
3
3
3
3
3
3
3
3
3
3
3
3
3
3
3
3
3
3
3
3
3
3
3
3
3
3
3
3
3
3
3
3
3
3
3
3
3
3
3
3
3
3
3
3
3
3
3

POINT_DATA 101
SCALARS MODE1_224.6674_Hz float 1
LOOKUP_TABLE default
0.009839986425673712
0.0
9.918014452165108e-05
0.00984773101890709
0.01923125756804173
0.028156174108346914
0.036625115811995256
0.04464086832169539
0.05220633260855651
0.05932455773785581
0.06599878065282873
0.07223246627140016
0.0780293466223999
0.08339345874816122
0.08832918136440242
0.09284127036454158
0.09693489330653715
0.1006156630591818
0.10388967082203092
0.10676351877379099
0.10924435264962322
0.11133989460088553
0.1130584767524032
0.11440907594405157
0.11540135022666352
0.11604567777848329
0.11635319901867187
0.11633586281913459
0.11600647785461882
0.11537877028068445
0.11446744908359988
0.11328828059331027
0.11185817376935527
0.1101952779246214
0.10831909448671845
0.10625060412339346
0.1040124099434102
0.10162889633141109
0.09912640100617362
0.09653339472872684
0.09388065825194664
0.09120143905313052
0.08853156063396117
0.08590944452592014
0.08337599020785517
0.08097424305393883
0.07874876974297165
0.07674466192433452
0.07500611259531875
0.07357456543914777
0.07248652832715774
0.07177125602346124
0.07144861109297548
0.0715274591665484
0.07200490559309085
0.07286653094130159
0.07408757674419197
0.07563484445809539
0.07746896438320575
0.0795466895133747
0.0818229486118914
0.08425250682316024
0.08679118850547873
0.0893966923627198
0.09202906909452234
0.09465094384422923
0.09722756034503739
0.09972671012242305
0.10211859462184507
0.10437565403648759
0.10647238523385957
0.10838516268797674
0.1100920703434043
0.1115727483279259
0.11280825586717523
0.11378095020178221
0.11447438043331021
0.1148731947905329
0.11496305964658836
0.11473058861955117
0.11416328018151412
0.11324946233889537
0.1119782431011355
0.11033946561003322
0.10832366694849166
0.10592203978109783
0.10312639609800055
0.09992913243800174
0.0963231960575093
0.09230205159027531
0.0878596478101663
0.08299038416712497
0.07768907681659518
0.0719509239068133
0.0657714699290416
0.05914656897777683
0.0520723468227977
0.04454516179784064
0.036561564791962646
0.028118259694848737
0.019212071430569036

