# vtk DataFile Version 2.0
mesh vtk view
ASCII
DATASET UNSTRUCTURED_GRID
POINTS 101 double
0.006031384152664288 0.0 0.0
2.0 0.0 0.0
0.0199999999999621 6.113618585801693e-05 0.0
0.046031384152550626 0.00023796627288640414 0.0
0.07156941193945407 0.0005206254194909133 0.0
0.09661436777246916 0.000899258506086134 0.0
0.1211669729846165 0.0013640308236673028 0.0
0.14522857772140224 0.0019051424129149402 0.0
0.16880133410939296 0.002512845679857175 0.0
0.19188835075448563 0.0031774659154561 0.0
0.21449382865272199 0.0038894243484954923 0.0
0.23662317863274454 0.004639263363934815 0.0
0.2582831204904058 0.005417673522556695 0.0
0.27948176402198 0.00621552202235569 0.0
0.3002286722120622 0.007023882247760544 0.0
0.3205349068850616 0.007834064059509054 0.0
0.3404130571842479 0.008637644485838586 0.0
0.35987725129929976 0.009426498484654133 0.0
0.37894315192124606 0.010192829456499823 0.0
0.3976279359622108 0.010929199199487634 0.0
0.41595025913549905 0.011628557009826004 0.0
0.43393020604908644 0.012284267645218354 0.0
0.45158922652192257 0.012890137883133104 0.0
0.46895005888643027 0.013440441421739288 0.0
0.48603664109263073 0.013929941888104102 0.0
0.5028740104781767 0.014353913735996416 0.0
0.5194881931141501 0.014708160834261193 0.0
0.5359060836782253 0.014989032566144866 0.0
0.5521553168443494 0.015193437280072284 0.0
0.5682641312110708 0.015318852953107955 0.0
0.584261226818752 0.015363334949577033 0.0
0.6001756173288214 0.01532552077896919 0.0
0.6160364779557533 0.015204631779190585 0.0
0.631872990254353 0.015000471673351811 0.0
0.6477141848710548 0.014713421970466026 0.0
0.6635887833681615 0.01434443420256246 0.0
0.6795250402242229 0.013895019012677059 0.0
0.6955505861019761 0.013367232129843013 0.0
0.711692273457537 0.012763657288449963 0.0
0.727976025540795 0.012087386170054188 0.0
0.744426689807402 0.011341995465785817 0.0
0.761067896727424 0.010531521176800814 0.0
0.7779219249348488 0.009660430288655836 0.0
0.7950095736158801 0.008733589972936948 0.0
0.8123500429825936 0.007756234485850621 0.0
0.8299608236222927 0.006733929948691621 0.0
0.8478575954521578 0.005672537209051501 0.0
0.8660541369438056 0.004578172994241843 0.0
0.8845622452135751 0.00345716957960524 0.0
0.9033916675021009 0.002316033204110549 0.0
0.9225500444914526 0.001161401473819132 0.0
0.9420428658302377 4.179978868669794e-13 0.0
0.9618734381569612 -0.0011614014729887851 0.0
0.9820428658301484 -0.0023160332032917856 0.0
1.002550044491212 -0.0034571695788012556 0.0
1.0233916675016932 -0.004578172993455608 0.0
1.0445622452130099 -0.005672537208285875 0.0
1.0660541369430927 -0.006733929947949178 0.0
1.0878575954513066 -0.007756234485133679 0.0
1.1099608236213152 -0.008733589972247545 0.0
1.1323500429815019 -0.009660430287995667 0.0
1.1550095736146881 -0.010531521176171406 0.0
1.177921924933569 -0.011341995465188314 0.0
1.2010678967260695 -0.012087386169489442 0.0
1.2244266898059866 -0.012763657287918598 0.0
1.2479760255393326 -0.013367232129345345 0.0
1.2716922734560403 -0.013895019012213098 0.0
1.2955505861004577 -0.014344434202131905 0.0
1.3195250402226968 -0.014713421970068393 0.0
1.3435887833666391 -0.015000471672986359 0.0
1.3677141848695455 -0.015204631778856389 0.0
1.391872990252866 -0.015325520778665119 0.0
1.4160364779542978 -0.015363334949301831 0.0
1.4401756173274045 -0.015318852952860226 0.0
1.4642612268173782 -0.015193437279850577 0.0
1.4882641312097427 -0.01498903256594767 0.0
1.5121553168430706 -0.014708160834086942 0.0
1.5359060836769998 -0.014353913735843502 0.0
1.5594881931129798 -0.013929941887970929 0.0
1.5828740104770622 -0.013440441421624252 0.0
1.6060366410915734 -0.012890137883034586 0.0
1.628950058885429 -0.012284267645134846 0.0
1.6515892265209762 -0.011628557009756034 0.0
1.6739302060481933 -0.010929199199429803 0.0
1.6959502591346596 -0.010192829456452702 0.0
1.7176279359614246 -0.00942649848461648 0.0
1.7389431519205032 -0.008637644485809242 0.0
1.759877251298607 -0.007834064059486785 0.0
1.7804130571836112 -0.007023882247744208 0.0
1.8005349068844732 -0.006215522022344692 0.0
1.8202286722115242 -0.005417673522550512 0.0
1.8394817640215018 -0.004639263363932597 0.0
1.85828312049 -0.0038894243484962885 0.0
1.8766231786324117 -0.003177465915459066 0.0
1.8944938286524622 -0.002512845679861507 0.0
1.9118883507542954 -0.0019051424129198303 0.0
1.9288013341092696 -0.0013640308236719746 0.0
1.9452285777213367 -0.0008992585060901225 0.0
1.961166972984599 -0.0005206254194939496 0.0
1.9766143677724943 -0.00023796627288833272 0.0
1.9915694119395229 -6.113618585868188e-05 0.0

CELLS 100 300
2 0 2
2 2 3
2 3 4
2 4 5
2 5 6
2 6 7
2 7 8
2 8 9
2 9 10
2 10 11
2 11 12
2 12 13
2 13 14
2 14 15
2 15 16
2 16 17
2 17 18
2 18 19
2 19 20
2 20 21
2 21 22
2 22 23
2 23 24
2 24 25
2 25 26
2 26 27
2 27 28
2 28 29
2 29 30
2 30 31
2 31 32
2 32 33
2 33 34
2 34 35
2 35 36
2 36 37
2 37 38
2 38 39
2 39 40
2 40 41
2 41 42
2 42 43
2 43 44
2 44 45
2 45 46
2 46 47
2 47 48
2 48 49
2 49 50
2 50 51
2 51 52
2 52 53
2 53 54
2 54 55
2 55 56
2 56 57
2 57 58
2 58 59
2 59 60
2 60 61
2 61 62
2 62 63
2 63 64
2 64 65
2 65 66
2 66 67
2 67 68
2 68 69
2 69 70
2 70 71
2 71 72
2 72 73
2 73 74
2 74 75
2 75 76
2 76 77
2 77 78
2 78 79
2 79 80
2 80 81
2 81 82
2 82 83
2 83 84
2 84 85
2 85 86
2 86 87
2 87 88
2 88 89
2 89 90
2 90 91
2 91 92
2 92 93
2 93 94
2 94 95
2 95 96
2 96 97
2 97 98
2 98 99
2 99 100
2 100 1

CELL_TYPES 100
3
3
3
3
3
3
3
3
3
3
3
3
3
3
3
3
3
3
3
3
3
3
3
3
3
3
3
3
3
3
3
3
3
3
3
3
3
3
3
3
3
3
3
3
3
3
3
3
3
3
3
3
3
3
3
3
3
3
3
3
3
3
3
3
3
3
3
3
3
3
3
3
3
3
3
3
3
3
3
3
3
3
3
3
3
3
3
3
3
3
3
3
3
3
3
3
3
3
3
3

POINT_DATA 101
SCALARS MODE2_619.3044_Hz float 1
LOOKUP_TABLE default
0.026678326394251408
0.0
0.00027042069938445454
0.02669908300799135
0.05122620198059031
0.0735970870188794
0.09382103666871622
0.11191006164386384
0.12787948854937414
0.1417486829959544
0.15354173192876894
0.16328807272747556
0.17102307352285254
0.17678857506277895
0.18063340979499545
0.18261392092327147
0.18279451462093704
0.18124829451167088
0.1780578524601362
0.17331632962096333
0.16712892693404371
0.1596151531053246
0.1509122830652464
0.1411808183798074
0.1306132909667855
0.1194486805475529
0.10799616053170648
0.09667354918822064
0.08606517552255694
0.07699038186627889
0.07052139906996296
0.06779307673419194
0.06950141315773865
0.07546310527554023
0.08478647049388952
0.09641173806823972
0.10945160536275443
0.1232537727216953
0.13735162014846516
0.1514044560584662
0.16515386844508056
0.1783958959139839
0.19096401355272147
0.20271881058131203
0.21354169713991591
0.22333103645467836
0.23199975169910905
0.23947384093247262
0.24569145754368366
0.25060234552465505
0.2541674979512153
0.2563589555978693
0.2571596933929035
0.2565635628299333
0.254575272935649
0.25121040379506954
0.24649545700115244
0.2404679585089744
0.23317664320750914
0.22468176974532517
0.2150556428734326
0.20438346558902168
0.1927647163133764
0.18031536755703845
0.16717146778711814
0.15349495947737
0.13948320450629575
0.12538466713938304
0.11152460413667803
0.09834571135527329
0.08646546035876494
0.07673032312148696
0.07018092003459094
0.06776358520223785
0.06979752698318221
0.07570959356789336
0.08439972464774602
0.09476895026187446
0.10595814165819621
0.11735092830459838
0.1285076113813851
0.13910468075092958
0.14889365925404777
0.1576754861769326
0.16528493749393947
0.17158112105141782
0.17644159358225697
0.17975864487126475
0.18143689083567074
0.18139166359647785
0.17954788762880722
0.17583924915807303
0.17020753655746107
0.1626020725539293
0.1529791858672218
0.1413016869830732
0.1275383239097795
0.11166320132918309
0.09365515225077523
0.07349705764894668
0.05117512820321649

