# vtk DataFile Version 2.0
mesh vtk view
ASCII
DATASET UNSTRUCTURED_GRID
POINTS 101 double
0.0010643619092936983 0.0 0.0
2.0 0.0 0.0
0.0199999999999621 1.078873868082652e-05 0.0
0.04106436190921149 4.1994048156424274e-05 0.0
0.06204166093039786 9.187507402780825e-05 0.0
0.08293194725383611 0.00015869267754461196 0.0
0.10373534817359015 0.00024071132182364177 0.0
0.12445210195063483 0.00033620160227910723 0.0
0.14508258837201546 0.00044344335526891337 0.0
0.16562735601524176 0.0005607292791981355 0.0
0.1860871462325524 0.0006863690026756754 0.0
0.20646291387606058 0.0008186935348120264 0.0
0.22675584479209315 0.0009560600333923583 0.0
0.24696737012116773 0.0010968568274745338 0.0
0.2670991774487926 0.0012395086319577436 0.0
0.28715321886162837 0.0013824818928545395 0.0
0.3071317159732014 0.0015242902033832805 0.0
0.32703716199345656 0.0016634997325860239 0.0
0.3468723209266932 0.0017987346099705578 0.0
0.36664022399269763 0.0019286822116742891 0.0
0.38634416337617106 0.0020520982958516483 0.0
0.4059876834196972 0.0021678119373914747 0.0
0.42557456938544375 0.0022747302146705487 0.0
0.4451088339203088 0.002371842603836346 0.0
0.4645947013684137 0.0024582250390771956 0.0
0.484036590083462 0.0025330436004699568 0.0
0.5034390929015269 0.0025955577942813877 0.0
0.522806955942198 0.0026451233940255657 0.0
0.5421450559126423 0.0026811948141304037 0.0
0.561458376094957 0.002703326991724934 0.0
0.5807519812021467 0.002711176755807713 0.0
0.6000309912921108 0.002704503666876917 0.0
0.6193005549321096 0.00268317031397481 0.0
0.6385658218082849 0.002647142060003262 0.0
0.6578319149758902 0.002596486230082241 0.0
0.6771039029459197 0.00253137074162867 0.0
0.6963867718028236 0.002452062178707717 0.0
0.7156853975459084 0.0023589233170311207 0.0
0.7350045188439005 0.0022524101097264647 0.0
0.7543487103879569 0.0021330681476566223 0.0
0.7737223570231924 0.0020015286116092626 0.0
0.7931296288325599 0.0018585037370824973 0.0
0.8125744573397043 0.0017047818156451483 0.0
0.8320605129892501 0.00154122175993005 0.0
0.8515911840539162 0.0013687472622089336 0.0
0.8711695571079328 0.0011883405791808749 0.0
0.8907983991955079 0.0010010359780679122 0.0
0.9104801418116328 0.000807912881336796 0.0
0.9302168668003676 0.0006100887493421014 0.0
0.9500102942630007 0.00040871174190186175 0.0
0.9698617725551911 0.00020495320126219982 0.0
0.9897722704384759 7.376433297652581e-14 0.0
1.0097423714373348 -0.00020495320111566805 0.0
1.0297722704385293 -0.0004087117417573741 0.0
1.049861772555231 -0.0006100887492002218 0.0
1.0700102942630059 -0.0008079128811980487 0.0
1.090216866800341 -0.0010010359779328017 0.0
1.1104801418115755 -0.0011883405790498553 0.0
1.1307983991954216 -0.0013687472620824144 0.0
1.1511695571078198 -0.0015412217598083909 0.0
1.1715911840537778 -0.0017047818155286477 0.0
1.1920605129890898 -0.0018585037369714251 0.0
1.212574457339524 -0.002001528611503821 0.0
1.233129628832361 -0.002133068147556961 0.0
1.2537223570229783 -0.0022524101096326947 0.0
1.2743487103877302 -0.002358923316943297 0.0
1.2950045188436634 -0.002452062178625842 0.0
1.3156853975456622 -0.00253137074155269 0.0
1.3363867718025715 -0.0025964862300120704 0.0
1.3571039029456637 -0.0026471420599387704 0.0
1.3778319149756322 -0.002683170313915834 0.0
1.3985658218080257 -0.0027045036668232572 0.0
1.4193005549318514 -0.0027111767557591476 0.0
1.440030991291855 -0.0027033269916812174 0.0
1.460751981201894 -0.0026811948140912792 0.0
1.481458376094707 -0.0026451233939907663 0.0
1.5021450559123968 -0.0025955577942506376 0.0
1.5228069559419573 -0.002533043600442972 0.0
1.5434390929012916 -0.0024582250390536944 0.0
1.5640365900832314 -0.002371842603816045 0.0
1.5845947013681887 -0.0022747302146531633 0.0
1.6051088339200892 -0.0021678119373767383 0.0
1.6255745693852295 -0.002052098295839301 0.0
1.645987683419487 -0.0019286822116640835 0.0
1.666344163375966 -0.0017987346099622421 0.0
1.6866402239924976 -0.0016634997325793797 0.0
1.7068723209264962 -0.0015242902033781019 0.0
1.7270371619932632 -0.0013824818928506097 0.0
1.7471317159730135 -0.001239508631954861 0.0
1.7671532188614445 -0.0010968568274725933 0.0
1.787099177448615 -0.0009560600333912672 0.0
1.8069673701210067 -0.0008186935348116351 0.0
1.8267558447919618 -0.0006863690026758159 0.0
1.8464629138759605 -0.0005607292791986589 0.0
1.8660871462324835 -0.00044344335526967784 0.0
1.8856273560152028 -0.0003362016022799702 0.0
1.9050825883720066 -0.0002407113218244662 0.0
1.9244521019506504 -0.0001586926775453158 0.0
1.9437353481736228 -9.187507402834408e-05 0.0
1.9629319472538824 -4.199404815676461e-05 0.0
1.9820416609304603 -1.0788738680943865e-05 0.0

CELLS 100 300
2 0 2
2 2 3
2 3 4
2 4 5
2 5 6
2 6 7
2 7 8
2 8 9
2 9 10
2 10 11
2 11 12
2 12 13
2 13 14
2 14 15
2 15 16
2 16 17
2 17 18
2 18 19
2 19 20
2 20 21
2 21 22
2 22 23
2 23 24
2 24 25
2 25 26
2 26 27
2 27 28
2 28 29
2 29 30
2 30 31
2 31 32
2 32 33
2 33 34
2 34 35
2 35 36
2 36 37
2 37 38
2 38 39
2 39 40
2 40 41
2 41 42
2 42 43
2 43 44
2 44 45
2 45 46
2 46 47
2 47 48
2 48 49
2 49 50
2 50 51
2 51 52
2 52 53
2 53 54
2 54 55
2 55 56
2 56 57
2 57 58
2 58 59
2 59 60
2 60 61
2 61 62
2 62 63
2 63 64
2 64 65
2 65 66
2 66 67
2 67 68
2 68 69
2 69 70
2 70 71
2 71 72
2 72 73
2 73 74
2 74 75
2 75 76
2 76 77
2 77 78
2 78 79
2 79 80
2 80 81
2 81 82
2 82 83
2 83 84
2 84 85
2 85 86
2 86 87
2 87 88
2 88 89
2 89 90
2 90 91
2 91 92
2 92 93
2 93 94
2 94 95
2 95 96
2 96 97
2 97 98
2 98 99
2 99 100
2 100 1

CELL_TYPES 100
3
3
3
3
3
3
3
3
3
3
3
3
3
3
3
3
3
3
3
3
3
3
3
3
3
3
3
3
3
3
3
3
3
3
3
3
3
3
3
3
3
3
3
3
3
3
3
3
3
3
3
3
3
3
3
3
3
3
3
3
3
3
3
3
3
3
3
3
3
3
3
3
3
3
3
3
3
3
3
3
3
3
3
3
3
3
3
3
3
3
3
3
3
3
3
3
3
3
3
3

POINT_DATA 101
SCALARS MODE2_619.3044_Hz float 1
LOOKUP_TABLE default
0.026678326394251408
0.0
0.00027042069938445454
0.02669908300799135
0.05122620198059031
0.0735970870188794
0.09382103666871622
0.11191006164386384
0.12787948854937414
0.1417486829959544
0.15354173192876894
0.16328807272747556
0.17102307352285254
0.17678857506277895
0.18063340979499545
0.18261392092327147
0.18279451462093704
0.18124829451167088
0.1780578524601362
0.17331632962096333
0.16712892693404371
0.1596151531053246
0.1509122830652464
0.1411808183798074
0.1306132909667855
0.1194486805475529
0.10799616053170648
0.09667354918822064
0.08606517552255694
0.07699038186627889
0.07052139906996296
0.06779307673419194
0.06950141315773865
0.07546310527554023
0.08478647049388952
0.09641173806823972
0.10945160536275443
0.1232537727216953
0.13735162014846516
0.1514044560584662
0.16515386844508056
0.1783958959139839
0.19096401355272147
0.20271881058131203
0.21354169713991591
0.22333103645467836
0.23199975169910905
0.23947384093247262
0.24569145754368366
0.25060234552465505
0.2541674979512153
0.2563589555978693
0.2571596933929035
0.2565635628299333
0.254575272935649
0.25121040379506954
0.24649545700115244
0.2404679585089744
0.23317664320750914
0.22468176974532517
0.2150556428734326
0.20438346558902168
0.1927647163133764
0.18031536755703845
0.16717146778711814
0.15349495947737
0.13948320450629575
0.12538466713938304
0.11152460413667803
0.09834571135527329
0.08646546035876494
0.07673032312148696
0.07018092003459094
0.06776358520223785
0.06979752698318221
0.07570959356789336
0.08439972464774602
0.09476895026187446
0.10595814165819621
0.11735092830459838
0.1285076113813851
0.13910468075092958
0.14889365925404777
0.1576754861769326
0.16528493749393947
0.17158112105141782
0.17644159358225697
0.17975864487126475
0.18143689083567074
0.18139166359647785
0.17954788762880722
0.17583924915807303
0.17020753655746107
0.1626020725539293
0.1529791858672218
0.1413016869830732
0.1275383239097795
0.11166320132918309
0.09365515225077523
0.07349705764894668
0.05117512820321649

