# vtk DataFile Version 2.0
mesh vtk view
ASCII
DATASET UNSTRUCTURED_GRID
POINTS 101 double
0.0001681566915726539 0.0 0.0
2.0 0.0 0.0
0.0199999999999621 -1.6949012174390925e-06 0.0
0.039831843308364805 -6.672931491733215e-06 0.0
0.05967168701436908 -1.4774091270338688e-05 0.0
0.07951953007081429 -2.583841700853178e-05 0.0
0.09937536979380081 -3.970602158744761e-05 0.0
0.11923920110104351 -5.621714956471215e-05 0.0
0.13911101579025223 -7.52122464573846e-05 0.0
0.15899080185750564 -9.653204125758207e-05 0.0
0.17887854285559576 -0.0001200176413822023 0.0
0.19877421729227443 -0.00014551063925956855 0.0
0.21867779806830234 -0.000172853229757707 0.0
0.23858925195520914 -0.00020188833766143394 0.0
0.2585085391126187 -0.00023245975440843833 0.0
0.278435612645005 -0.0002644122832982596 0.0
0.29837041819763266 -0.00029759189239228945 0.0
0.3183128935914507 -0.00033184587432806334 0.0
0.3382629684967072 -0.00036702301227700825 0.0
0.35822056414494413 -0.0004029737512813592 0.0
0.37818559307902594 -0.0004395503742134447 0.0
0.39815795894080414 -0.00047660718160887007 0.0
0.4181375562959858 -0.0005140006746343345 0.0
0.43812427049571834 -0.0005515897404609128 0.0
0.4581179775743655 -0.0005892358393246539 0.0
0.478118544182901 -0.0006268031925682962 0.0
0.4981258275572956 -0.0006641589709707681 0.0
0.5181396755212357 -0.0007011734826849824 0.0
0.5381599265224537 -0.0007377203601191798 0.0
0.5581864097019108 -0.000773676745112784 0.0
0.578218944995024 -0.0008089234717743823 0.0
0.5982573432640813 -0.0008433452463669882 0.0
0.6183014064609439 -0.0008768308236442437 0.0
0.6383509278190884 -0.0009092731790605859 0.0
0.6584056920739992 -0.000940569676298672 0.0
0.6784654757108742 -0.0009706222295784695 0.0
0.6985300472385693 -0.0009993374602343952 0.0
0.7185991674886604 -0.001026626847069642 0.0
0.7386725899384653 -0.0010524068700204052 0.0
0.7587500610568291 -0.0010765991466870272 0.0
0.7788313206714388 -0.0010991305613140886 0.0
0.7989161023563992 -0.0011199333858272124 0.0
0.8190041338387671 -0.0011389453925606898 0.0
0.8390951374227098 -0.001156109958336994 0.0
0.8591888304299278 -0.00117137615958678 0.0
0.8792849256549495 -0.0011846988582260264 0.0
0.8993831318338862 -0.0011960387780354641 0.0
0.9194831541252054 -0.0012053625713164355 0.0
0.9395846946010711 -0.0012126428756266123 0.0
0.9596874527477698 -0.001217858360428714 0.0
0.9797911259737349 -0.001220993763515283 0.0
0.9998954101236863 -0.001222039917102791 0.0
1.01999999999733 -0.0012209937635186705 0.0
1.0401045898709969 -0.0012178583604354459 0.0
1.06020887402104 -0.001212642875636624 0.0
1.0803125472471187 -0.0012053625713296387 0.0
1.1004153053939332 -0.001196038778051749 0.0
1.1205168458699157 -0.0011846988582452653 0.0
1.1406168681613524 -0.001171376159608827 0.0
1.1607150743404078 -0.0011561099583616864 0.0
1.1808111695655479 -0.0011389453925878497 0.0
1.200904862572886 -0.0011199333858566446 0.0
1.2209958661569493 -0.0010991305613455883 0.0
1.2410838976394378 -0.0010765991467203819 0.0
1.2611686793245203 -0.0010524068700553909 0.0
1.2812499389392522 -0.0010266268471060282 0.0
1.3013274100577383 -0.0009993374602719478 0.0
1.321400832507665 -0.0009706222296169508 0.0
1.3414699527578793 -0.0009405696763378404 0.0
1.3615345242856973 -0.0009092731791002038 0.0
1.3815943079226953 -0.0008768308236840756 0.0
1.4016490721777275 -0.000843345246406805 0.0
1.4216985935359947 -0.0008089234718139576 0.0
1.4417426567329794 -0.0007736767451519032 0.0
1.4617810550021584 -0.0007377203601576395 0.0
1.4818135902953917 -0.0007011734827225932 0.0
1.5018400734749693 -0.0006641589710073488 0.0
1.521860324476307 -0.0006268031926036826 0.0
1.5418741724403664 -0.0005892358393586944 0.0
1.5618814558148786 -0.0005515897404934734 0.0
1.581882022423532 -0.0005140006746652937 0.0
1.601875729502296 -0.0004766071816381253 0.0
1.6218624437021447 -0.00043955037424091016 0.0
1.6418420410574408 -0.00040297375130696835 0.0
1.6618144069193337 -0.00036702301230070593 0.0
1.681779435853529 -0.0003318458743498135 0.0
1.7017370315018792 -0.0002975918924120701 0.0
1.721687106407247 -0.00026441228331606766 0.0
1.7416295818011767 -0.00023245975442429074 0.0
1.7615643873539146 -0.0002018883376753833 0.0
1.7814914608864085 -0.00017285322976981994 0.0
1.8014107480439123 -0.0001455106392699129 0.0
1.8213222019309014 -0.00012001764139085609 0.0
1.8412257827070089 -9.653204126464272e-05 0.0
1.8611214571437664 -7.521224646296623e-05 0.0
1.8810091981419335 -5.6217149568943826e-05 0.0
1.900888984209264 -3.970602159047538e-05 0.0
1.920760798898554 -2.5838417010527593e-05 0.0
1.9406246302058838 -1.4774091271496657e-05 0.0
1.9604804699289575 -6.6729314922666625e-06 0.0
1.9803283129854878 -1.6949012175776232e-06 0.0

CELLS 100 300
2 0 2
2 2 3
2 3 4
2 4 5
2 5 6
2 6 7
2 7 8
2 8 9
2 9 10
2 10 11
2 11 12
2 12 13
2 13 14
2 14 15
2 15 16
2 16 17
2 17 18
2 18 19
2 19 20
2 20 21
2 21 22
2 22 23
2 23 24
2 24 25
2 25 26
2 26 27
2 27 28
2 28 29
2 29 30
2 30 31
2 31 32
2 32 33
2 33 34
2 34 35
2 35 36
2 36 37
2 37 38
2 38 39
2 39 40
2 40 41
2 41 42
2 42 43
2 43 44
2 44 45
2 45 46
2 46 47
2 47 48
2 48 49
2 49 50
2 50 51
2 51 52
2 52 53
2 53 54
2 54 55
2 55 56
2 56 57
2 57 58
2 58 59
2 59 60
2 60 61
2 61 62
2 62 63
2 63 64
2 64 65
2 65 66
2 66 67
2 67 68
2 68 69
2 69 70
2 70 71
2 71 72
2 72 73
2 73 74
2 74 75
2 75 76
2 76 77
2 77 78
2 78 79
2 79 80
2 80 81
2 81 82
2 82 83
2 83 84
2 84 85
2 85 86
2 86 87
2 87 88
2 88 89
2 89 90
2 90 91
2 91 92
2 92 93
2 93 94
2 94 95
2 95 96
2 96 97
2 97 98
2 98 99
2 99 100
2 100 1

CELL_TYPES 100
3
3
3
3
3
3
3
3
3
3
3
3
3
3
3
3
3
3
3
3
3
3
3
3
3
3
3
3
3
3
3
3
3
3
3
3
3
3
3
3
3
3
3
3
3
3
3
3
3
3
3
3
3
3
3
3
3
3
3
3
3
3
3
3
3
3
3
3
3
3
3
3
3
3
3
3
3
3
3
3
3
3
3
3
3
3
3
3
3
3
3
3
3
3
3
3
3
3
3
3

POINT_DATA 101
SCALARS MODE1_224.6674_Hz float 1
LOOKUP_TABLE default
0.009839986425673712
0.0
9.918014452165108e-05
0.00984773101890709
0.01923125756804173
0.028156174108346914
0.036625115811995256
0.04464086832169539
0.05220633260855651
0.05932455773785581
0.06599878065282873
0.07223246627140016
0.0780293466223999
0.08339345874816122
0.08832918136440242
0.09284127036454158
0.09693489330653715
0.1006156630591818
0.10388967082203092
0.10676351877379099
0.10924435264962322
0.11133989460088553
0.1130584767524032
0.11440907594405157
0.11540135022666352
0.11604567777848329
0.11635319901867187
0.11633586281913459
0.11600647785461882
0.11537877028068445
0.11446744908359988
0.11328828059331027
0.11185817376935527
0.1101952779246214
0.10831909448671845
0.10625060412339346
0.1040124099434102
0.10162889633141109
0.09912640100617362
0.09653339472872684
0.09388065825194664
0.09120143905313052
0.08853156063396117
0.08590944452592014
0.08337599020785517
0.08097424305393883
0.07874876974297165
0.07674466192433452
0.07500611259531875
0.07357456543914777
0.07248652832715774
0.07177125602346124
0.07144861109297548
0.0715274591665484
0.07200490559309085
0.07286653094130159
0.07408757674419197
0.07563484445809539
0.07746896438320575
0.0795466895133747
0.0818229486118914
0.08425250682316024
0.08679118850547873
0.0893966923627198
0.09202906909452234
0.09465094384422923
0.09722756034503739
0.09972671012242305
0.10211859462184507
0.10437565403648759
0.10647238523385957
0.10838516268797674
0.1100920703434043
0.1115727483279259
0.11280825586717523
0.11378095020178221
0.11447438043331021
0.1148731947905329
0.11496305964658836
0.11473058861955117
0.11416328018151412
0.11324946233889537
0.1119782431011355
0.11033946561003322
0.10832366694849166
0.10592203978109783
0.10312639609800055
0.09992913243800174
0.0963231960575093
0.09230205159027531
0.0878596478101663
0.08299038416712497
0.07768907681659518
0.0719509239068133
0.0657714699290416
0.05914656897777683
0.0520723468227977
0.04454516179784064
0.036561564791962646
0.028118259694848737
0.019212071430569036

