# vtk DataFile Version 2.0
mesh vtk view
ASCII
DATASET UNSTRUCTURED_GRID
POINTS 101 double
0.0014013057631054497 0.0 0.0
2.0 0.0 0.0
0.0199999999999621 -1.4124176811992445e-05 0.0
0.038598694236926814 -5.5607762431110154e-05 0.0
0.05726405845391303 -0.00012311742725282246 0.0
0.07599608392460148 -0.00021532014173776494 0.0
0.09479474828314907 -0.00033088351322873026 0.0
0.11366000917715126 -0.00046847624637260147 0.0
0.1325917982541531 -0.0006267687204782052 0.0
0.15159001548149054 -0.0008044336771465177 0.0
0.17065452379913276 -0.001000147011518353 0.0
0.18978514410501263 -0.001212588660496405 0.0
0.20898165057213716 -0.0014404435813142255 0.0
0.22824376629659884 -0.0016824028138452836 0.0
0.24757115927533874 -0.0019371646200703205 0.0
0.26696343871230455 -0.0022034356941521643 0.0
0.286420151651297 -0.0024799324366024133 0.0
0.3059407799335424 -0.002765382286067196 0.0
0.3255247374777738 -0.0030585251023084034 0.0
0.34517136788017727 -0.003358114594011328 0.0
0.3648799423312866 -0.003662919785112041 0.0
0.38464965784653343 -0.0039717265134072526 0.0
0.40447963580680857 -0.004283338955286124 0.0
0.4243689208050073 -0.004596581170507608 0.0
0.4443164797941627 -0.004910298661038785 0.0
0.464321201532386 -0.0052233599380691375 0.0
0.4843818963194363 -0.00553465809142307 0.0
0.5044972960193659 -0.00584311235570819 0.0
0.5246660543632767 -0.006147669667659834 0.0
0.5448867475258469 -0.006447306209273204 0.0
0.565157874968885 -0.006741028931453189 0.0
0.5854778605447913 -0.0070278770530582384 0.0
0.6058450538524079 -0.007306923530368701 0.0
0.6262577318373739 -0.007577276492171552 0.0
0.6467141006287241 -0.00783808063582227 0.0
0.6672122976031105 -0.008088518579820583 0.0
0.687750393667665 -0.008327812168619964 0.0
0.7083263957521861 -0.008555223725580355 0.0
0.7289382495009881 -0.008770057250170047 0.0
0.7495838421544468 -0.008971659555725231 0.0
0.7702610056099556 -0.009159421344284076 0.0
0.7909675196517216 -0.009332778215226776 0.0
0.8117011153385492 -0.00949121160467242 0.0
0.8324594785384997 -0.009634249652808288 0.0
0.8532402535990768 -0.009761467996556505 0.0
0.8740410471413531 -0.00987249048521689 0.0
0.894859431966253 -0.009966989816962205 0.0
0.9156929510610086 -0.010044688094303634 0.0
0.9365391216936506 -0.010105357296888441 0.0
0.9573954395832343 -0.010148819670239288 0.0
0.9782593831333715 -0.01017494802929403 0.0
0.999128417716569 -0.010183665975856597 0.0
1.019999999996707 -0.010174948029322258 0.0
1.0408715822768746 -0.010148819670295389 0.0
1.0617406168601795 -0.010105357296971871 0.0
1.0826045604104537 -0.01004468809441366 0.0
1.103460878300185 -0.009966989817097914 0.0
1.1243070489329838 -0.009872490485377217 0.0
1.145140568027903 -0.00976146799674023 0.0
1.1659589528529737 -0.009634249653014059 0.0
1.1867597463954278 -0.009491211604898752 0.0
1.2075405214561896 -0.009332778215472043 0.0
1.2282988846563303 -0.009159421344546573 0.0
1.2490324803433517 -0.008971659556003186 0.0
1.2697389943853166 -0.008770057250461595 0.0
1.2904161578410276 -0.008555223725883573 0.0
1.3110617504946904 -0.008327812168932901 0.0
1.331673604243698 -0.00808851858014126 0.0
1.3522496063284273 -0.007838080636148673 0.0
1.3727877023931903 -0.007577276492501703 0.0
1.393285899367784 -0.0073069235307006335 0.0
1.413742268159339 -0.007027877053390045 0.0
1.434154946144509 -0.006741028931782984 0.0
1.4545221394523267 -0.006447306209599196 0.0
1.47484212502843 -0.006147669667980332 0.0
1.4951132524716593 -0.0058431123560216125 0.0
1.5153339456344164 -0.00553465809172791 0.0
1.5355027039785094 -0.005223359938364024 0.0
1.5556181036786159 -0.004910298661322456 0.0
1.5756787984658363 -0.004596581170778947 0.0
1.595683520204224 -0.004283338955544116 0.0
1.6156310791935375 -0.003971726513651046 0.0
1.6355203641918874 -0.0036629197853409196 0.0
1.655350342152306 -0.0033581145942247377 0.0
1.675120057667691 -0.0030585251025058843 0.0
1.6948286321189314 -0.002765382286248447 0.0
1.7144752625214608 -0.0024799324367672524 0.0
1.7340592200658105 -0.0022034356943005646 0.0
1.7535798483481684 -0.0019371646202024238 0.0
1.773036561287264 -0.0016824028139615281 0.0
1.792428840724325 -0.001440443581415167 0.0
1.8117562337031408 -0.001212588660582608 0.0
1.8310183494276615 -0.001000147011590468 0.0
1.8502148558948364 -0.0008044336772053564 0.0
1.8693454762007593 -0.000626768720524719 0.0
1.8884099845184366 -0.0004684762464078654 0.0
1.9074082017458027 -0.00033088351325396165 0.0
1.9263399908228305 -0.0002153201417543967 0.0
1.9452052517168574 -0.0001231174272624722 0.0
1.964003916075423 -5.560776243555555e-05 0.0
1.982735941546121 -1.4124176813146868e-05 0.0

CELLS 100 300
2 0 2
2 2 3
2 3 4
2 4 5
2 5 6
2 6 7
2 7 8
2 8 9
2 9 10
2 10 11
2 11 12
2 12 13
2 13 14
2 14 15
2 15 16
2 16 17
2 17 18
2 18 19
2 19 20
2 20 21
2 21 22
2 22 23
2 23 24
2 24 25
2 25 26
2 26 27
2 27 28
2 28 29
2 29 30
2 30 31
2 31 32
2 32 33
2 33 34
2 34 35
2 35 36
2 36 37
2 37 38
2 38 39
2 39 40
2 40 41
2 41 42
2 42 43
2 43 44
2 44 45
2 45 46
2 46 47
2 47 48
2 48 49
2 49 50
2 50 51
2 51 52
2 52 53
2 53 54
2 54 55
2 55 56
2 56 57
2 57 58
2 58 59
2 59 60
2 60 61
2 61 62
2 62 63
2 63 64
2 64 65
2 65 66
2 66 67
2 67 68
2 68 69
2 69 70
2 70 71
2 71 72
2 72 73
2 73 74
2 74 75
2 75 76
2 76 77
2 77 78
2 78 79
2 79 80
2 80 81
2 81 82
2 82 83
2 83 84
2 84 85
2 85 86
2 86 87
2 87 88
2 88 89
2 89 90
2 90 91
2 91 92
2 92 93
2 93 94
2 94 95
2 95 96
2 96 97
2 97 98
2 98 99
2 99 100
2 100 1

CELL_TYPES 100
3
3
3
3
3
3
3
3
3
3
3
3
3
3
3
3
3
3
3
3
3
3
3
3
3
3
3
3
3
3
3
3
3
3
3
3
3
3
3
3
3
3
3
3
3
3
3
3
3
3
3
3
3
3
3
3
3
3
3
3
3
3
3
3
3
3
3
3
3
3
3
3
3
3
3
3
3
3
3
3
3
3
3
3
3
3
3
3
3
3
3
3
3
3
3
3
3
3
3
3

POINT_DATA 101
SCALARS MODE1_224.6674_Hz float 1
LOOKUP_TABLE default
0.009839986425673712
0.0
9.918014452165108e-05
0.00984773101890709
0.01923125756804173
0.028156174108346914
0.036625115811995256
0.04464086832169539
0.05220633260855651
0.05932455773785581
0.06599878065282873
0.07223246627140016
0.0780293466223999
0.08339345874816122
0.08832918136440242
0.09284127036454158
0.09693489330653715
0.1006156630591818
0.10388967082203092
0.10676351877379099
0.10924435264962322
0.11133989460088553
0.1130584767524032
0.11440907594405157
0.11540135022666352
0.11604567777848329
0.11635319901867187
0.11633586281913459
0.11600647785461882
0.11537877028068445
0.11446744908359988
0.11328828059331027
0.11185817376935527
0.1101952779246214
0.10831909448671845
0.10625060412339346
0.1040124099434102
0.10162889633141109
0.09912640100617362
0.09653339472872684
0.09388065825194664
0.09120143905313052
0.08853156063396117
0.08590944452592014
0.08337599020785517
0.08097424305393883
0.07874876974297165
0.07674466192433452
0.07500611259531875
0.07357456543914777
0.07248652832715774
0.07177125602346124
0.07144861109297548
0.0715274591665484
0.07200490559309085
0.07286653094130159
0.07408757674419197
0.07563484445809539
0.07746896438320575
0.0795466895133747
0.0818229486118914
0.08425250682316024
0.08679118850547873
0.0893966923627198
0.09202906909452234
0.09465094384422923
0.09722756034503739
0.09972671012242305
0.10211859462184507
0.10437565403648759
0.10647238523385957
0.10838516268797674
0.1100920703434043
0.1115727483279259
0.11280825586717523
0.11378095020178221
0.11447438043331021
0.1148731947905329
0.11496305964658836
0.11473058861955117
0.11416328018151412
0.11324946233889537
0.1119782431011355
0.11033946561003322
0.10832366694849166
0.10592203978109783
0.10312639609800055
0.09992913243800174
0.0963231960575093
0.09230205159027531
0.0878596478101663
0.08299038416712497
0.07768907681659518
0.0719509239068133
0.0657714699290416
0.05914656897777683
0.0520723468227977
0.04454516179784064
0.036561564791962646
0.028118259694848737
0.019212071430569036

