# vtk DataFile Version 2.0
mesh vtk view
ASCII
DATASET UNSTRUCTURED_GRID
POINTS 101 double
-0.0011770968410085778 0.0 0.0
2.0 0.0 0.0
0.0199999999999621 1.1864308522073654e-05 0.0
0.04117709684084262 4.6710520442132524e-05 0.0
0.062298190898502956 0.00010341863889237087 0.0
0.08336328950304644 0.00018086891905972255 0.0
0.10437241144178454 0.00027794215111213343 0.0
0.12532559229074416 0.00039352004695298524 0.0
0.14622288946599674 0.0005264857252016924 0.0
0.16706438699497664 0.0006757242888030748 0.0
0.18785020000810085 0.0008401234896754166 0.0
0.20858047895110549 0.0010185744748169802 0.0
0.22925541351866435 0.0012099726083039494 0.0
0.24987523631005673 0.0014132183636300381 0.0
0.2704402262078332 0.0016272182808590692 0.0
0.29095071148067814 0.0018508859830878178 0.0
0.311407072611817 0.0020831432467460272 0.0
0.3318097448546234 0.0023229211202964446 0.0
0.35215922051736176 0.0025691610859390587 0.0
0.3724560509792352 0.002820816258969516 0.0
0.39270084844019615 0.003076852619494114 0.0
0.4128942874072813 0.003336250271262092 0.0
0.43303710592054273 0.003598004722440344 0.0
0.4531301065219485 0.003861128183226391 0.0
0.47317415697095033 0.004124650875272579 0.0
0.4931701907107356 0.004387622347978075 0.0
0.5131192070895058 0.004649112796795379 0.0
0.5330222713414574 0.004908214378794879 0.0
0.5528805143324649 0.005164042520834261 0.0
0.5726951320757988 0.005415737215789491 0.0
0.5924673850235392 0.005662464302420679 0.0
0.6121985971396704 0.00590341672456892 0.0
0.631890154761165 0.006137815765509708 0.0
0.6515435052536862 0.006364912253424103 0.0
0.6711601554688448 0.006583987734090708 0.0
0.6907416700102528 0.0067943556070492895 0.0
0.7102896693159194 0.006995362221640769 0.0
0.7298058275648143 0.007186387929487497 0.0
0.7492918704157132 0.007366848090142839 0.0
0.7687495725867005 0.007536194026809195 0.0
0.7881807552839658 0.007693913929198624 0.0
0.8075872834887747 0.00783953370079049 0.0
0.8269710631117322 0.007972617747924831 0.0
0.8463340380236662 0.008092769708358961 0.0
0.8656781869726743 0.008199633117107464 0.0
0.8850055203970547 0.008292892007582188 0.0
0.9043180771440316 0.008372271446248252 0.0
0.9236179211043292 0.008437537999215053 0.0
0.9429071377728024 0.00848850012938629 0.0
0.962187830745445 0.008525008523001 0.0
0.9814621181632223 0.008546956344606985 0.0
1.000732129113269 0.00855427941971954 0.0
1.0199999999980096 0.008546956344630697 0.0
1.0392678708827665 0.008525008523048126 0.0
1.0585378818328877 0.008488500129456372 0.0
1.077812169250753 0.008437537999307474 0.0
1.0970928622234764 0.008372271446362248 0.0
1.1163820788920231 0.008292892007716861 0.0
1.1356819228523884 0.008199633117261792 0.0
1.1549944795994265 0.00809276970853181 0.0
1.1743218130238606 0.007972617748114951 0.0
1.1936659619729184 0.007839533700996517 0.0
1.2130289368848977 0.007693913929419122 0.0
1.2324127165078953 0.007536194027042677 0.0
1.2518192447127425 0.0073668480903877395 0.0
1.271250427410043 0.0071863879297422014 0.0
1.2907081295810634 0.006995362221903638 0.0
1.3101941724319925 0.006794355607318659 0.0
1.3297103306809177 0.006583987734364885 0.0
1.349258329986614 0.00636491225370143 0.0
1.368839844528053 0.006137815765788532 0.0
1.3884564947432425 0.0059034167248476375 0.0
1.4081098452357974 0.005662464302697706 0.0
1.4278014028573278 0.005415737216063325 0.0
1.4475326149734986 0.005164042521103479 0.0
1.4673048679212817 0.004908214379058155 0.0
1.4871194856646632 0.004649112797051444 0.0
1.5069777286557224 0.00438762234822578 0.0
1.5268807929077308 0.004124650875510862 0.0
1.5468298092865613 0.0038611281834543152 0.0
1.5668258430264133 0.003598004722657058 0.0
1.5868698934754872 0.0033362502714668787 0.0
1.606962894076971 0.0030768526196863727 0.0
1.627105712590315 0.00282081625914878 0.0
1.6472991515574893 0.002569161086104943 0.0
1.6675439490185444 0.0023229211204486956 0.0
1.6878407794805177 0.002083143246884492 0.0
1.7081902551433594 0.0018508859832124744 0.0
1.7285929273862766 0.001627218280970036 0.0
1.7490492885175335 0.0014132183637276835 0.0
1.7695597737905 0.0012099726083887401 0.0
1.7901247636883904 0.0010185744748893906 0.0
1.8107445864798906 0.000840123489735993 0.0
1.831419521047561 0.0006757242888524994 0.0
1.8521497999906833 0.0005264857252407639 0.0
1.87293561300393 0.00039352004698260695 0.0
1.8937771105330399 0.0002779421511333278 0.0
1.9146744077084341 0.00018086891907369323 0.0
1.9356275885575491 0.00010341863890047665 0.0
1.9566367104964497 4.671052044586666e-05 0.0
1.9777018091011607 1.186430852304337e-05 0.0

CELLS 100 300
2 0 2
2 2 3
2 3 4
2 4 5
2 5 6
2 6 7
2 7 8
2 8 9
2 9 10
2 10 11
2 11 12
2 12 13
2 13 14
2 14 15
2 15 16
2 16 17
2 17 18
2 18 19
2 19 20
2 20 21
2 21 22
2 22 23
2 23 24
2 24 25
2 25 26
2 26 27
2 27 28
2 28 29
2 29 30
2 30 31
2 31 32
2 32 33
2 33 34
2 34 35
2 35 36
2 36 37
2 37 38
2 38 39
2 39 40
2 40 41
2 41 42
2 42 43
2 43 44
2 44 45
2 45 46
2 46 47
2 47 48
2 48 49
2 49 50
2 50 51
2 51 52
2 52 53
2 53 54
2 54 55
2 55 56
2 56 57
2 57 58
2 58 59
2 59 60
2 60 61
2 61 62
2 62 63
2 63 64
2 64 65
2 65 66
2 66 67
2 67 68
2 68 69
2 69 70
2 70 71
2 71 72
2 72 73
2 73 74
2 74 75
2 75 76
2 76 77
2 77 78
2 78 79
2 79 80
2 80 81
2 81 82
2 82 83
2 83 84
2 84 85
2 85 86
2 86 87
2 87 88
2 88 89
2 89 90
2 90 91
2 91 92
2 92 93
2 93 94
2 94 95
2 95 96
2 96 97
2 97 98
2 98 99
2 99 100
2 100 1

CELL_TYPES 100
3
3
3
3
3
3
3
3
3
3
3
3
3
3
3
3
3
3
3
3
3
3
3
3
3
3
3
3
3
3
3
3
3
3
3
3
3
3
3
3
3
3
3
3
3
3
3
3
3
3
3
3
3
3
3
3
3
3
3
3
3
3
3
3
3
3
3
3
3
3
3
3
3
3
3
3
3
3
3
3
3
3
3
3
3
3
3
3
3
3
3
3
3
3
3
3
3
3
3
3

POINT_DATA 101
SCALARS MODE1_224.6674_Hz float 1
LOOKUP_TABLE default
0.009839986425673712
0.0
9.918014452165108e-05
0.00984773101890709
0.01923125756804173
0.028156174108346914
0.036625115811995256
0.04464086832169539
0.05220633260855651
0.05932455773785581
0.06599878065282873
0.07223246627140016
0.0780293466223999
0.08339345874816122
0.08832918136440242
0.09284127036454158
0.09693489330653715
0.1006156630591818
0.10388967082203092
0.10676351877379099
0.10924435264962322
0.11133989460088553
0.1130584767524032
0.11440907594405157
0.11540135022666352
0.11604567777848329
0.11635319901867187
0.11633586281913459
0.11600647785461882
0.11537877028068445
0.11446744908359988
0.11328828059331027
0.11185817376935527
0.1101952779246214
0.10831909448671845
0.10625060412339346
0.1040124099434102
0.10162889633141109
0.09912640100617362
0.09653339472872684
0.09388065825194664
0.09120143905313052
0.08853156063396117
0.08590944452592014
0.08337599020785517
0.08097424305393883
0.07874876974297165
0.07674466192433452
0.07500611259531875
0.07357456543914777
0.07248652832715774
0.07177125602346124
0.07144861109297548
0.0715274591665484
0.07200490559309085
0.07286653094130159
0.07408757674419197
0.07563484445809539
0.07746896438320575
0.0795466895133747
0.0818229486118914
0.08425250682316024
0.08679118850547873
0.0893966923627198
0.09202906909452234
0.09465094384422923
0.09722756034503739
0.09972671012242305
0.10211859462184507
0.10437565403648759
0.10647238523385957
0.10838516268797674
0.1100920703434043
0.1115727483279259
0.11280825586717523
0.11378095020178221
0.11447438043331021
0.1148731947905329
0.11496305964658836
0.11473058861955117
0.11416328018151412
0.11324946233889537
0.1119782431011355
0.11033946561003322
0.10832366694849166
0.10592203978109783
0.10312639609800055
0.09992913243800174
0.0963231960575093
0.09230205159027531
0.0878596478101663
0.08299038416712497
0.07768907681659518
0.0719509239068133
0.0657714699290416
0.05914656897777683
0.0520723468227977
0.04454516179784064
0.036561564791962646
0.028118259694848737
0.019212071430569036

