# vtk DataFile Version 2.0
mesh vtk view
ASCII
DATASET UNSTRUCTURED_GRID
POINTS 101 double
0.00035478730309789944 0.0 0.0
2.0 0.0 0.0
0.0199999999999621 3.5962462269421735e-06 0.0
0.04035478730302019 1.3998016052141426e-05 0.0
0.06068055364338983 3.0625024675936085e-05 0.0
0.08097731575117424 5.289755918153732e-05 0.0
0.10124511605772923 8.023710727454726e-05 0.0
0.12148403398338234 0.00011206720075970241 0.0
0.14169419612381867 0.00014781445175630448 0.0
0.16187578533820693 0.00018690975973271185 0.0
0.18202904874395673 0.00022878966755855847 0.0
0.20215430462510572 0.0002728978449373421 0.0
0.2222519482637628 0.0003186866777974528 0.0
0.24232245670676597 0.00036561894249151133 0.0
0.2623663924826112 0.0004131695439859146 0.0
0.2823844062868522 0.00046082729761817985 0.0
0.30237723865733757 0.0005080967344610935 0.0
0.3223457206640504 0.0005544999108620081 0.0
0.34229077364175703 0.0005995782033235193 0.0
0.36221340799705287 0.0006428940705580964 0.0
0.3821147211248385 0.0006840327652838828 0.0
0.4019958944726416 0.0007226039791304917 0.0
0.42185818979451817 0.0007582434048901829 0.0
0.4417029446394343 0.0007906142012787821 0.0
0.461531567122097 0.0008194083463590652 0.0
0.48134553002707425 0.0008443478668233189 0.0
0.5011463642997236 0.0008651859314271294 0.0
0.5209356519799083 0.0008817077980085219 0.0
0.5407150186366841 0.0008937316047101347 0.0
0.5604861253640835 0.0009011089972416448 0.0
0.5802506603997745 0.0009037255852692377 0.0
0.6000103304297235 0.0009015012222923057 0.0
0.6197668516430176 0.0008943901046582701 0.0
0.6395219406017038 0.000882380686667754 0.0
0.6592773049908667 0.0008654954100274136 0.0
0.6790346343141709 0.0008437902472095568 0.0
0.6987955905997666 0.0008173540595692391 0.0
0.7185617991807559 0.000786307772343707 0.0
0.738334839613381 0.0007508033699088216 0.0
0.7581162367946943 0.0007110227158855408 0.0
0.7779074523397339 0.0006671762038697542 0.0
0.7977098762761508 0.0006195012456941658 0.0
0.8175248191118266 0.0005682606052150494 0.0
0.8373535043283029 0.00051374058664335 0.0
0.8571970613498194 0.00045624908740297786 0.0
0.8770565190344527 0.00039611352639362494 0.0
0.8969327997302722 0.00033367865935597077 0.0
0.9168267139356082 0.00026930429377893206 0.0
0.9367389555984809 0.00020336291644736714 0.0
0.9566700980859864 0.0001362372473006206 0.0
0.976620590850011 6.831773375406661e-05 0.0
0.9965907568110814 2.458811099217527e-14 0.0
1.0165807904773883 -6.831773370522269e-05 0.0
1.0365907568111552 -0.00013623724725245803 0.0
1.056620590850091 -0.00020336291640007394 0.0
1.0766700980860506 -0.0002693042937326829 0.0
1.096738955598531 -0.000333678659310934 0.0
1.1168267139356445 -0.0003961135263499518 0.0
1.1369327997302952 -0.00045624908736080483 0.0
1.1570565190344633 -0.000513740586602797 0.0
1.1771970613498173 -0.000568260605176216 0.0
1.19735350432829 -0.0006195012456571418 0.0
1.2175248191118033 -0.000667176203834607 0.0
1.237709876276117 -0.0007110227158523205 0.0
1.2579074523396914 -0.000750803369877565 0.0
1.2781162367946441 -0.0007863077723144324 0.0
1.2983348396133239 -0.0008173540595419474 0.0
1.3185617991806913 -0.0008437902471842301 0.0
1.3387955905996964 -0.0008654954100040234 0.0
1.3590346343140958 -0.0008823806866462569 0.0
1.3792773049907874 -0.0008943901046386115 0.0
1.39952194060162 -0.0009015012222744192 0.0
1.4197668516429305 -0.0009037255852530492 0.0
1.4400103304296337 -0.0009011089972270726 0.0
1.460250660399682 -0.0008937316046970932 0.0
1.4804861253639876 -0.0008817077979969221 0.0
1.5007150186365863 -0.0008651859314168793 0.0
1.5209356519798083 -0.000844347866814324 0.0
1.541146364299622 -0.0008194083463512315 0.0
1.5613455300269699 -0.0007906142012720153 0.0
1.581531567121991 -0.0007582434048843878 0.0
1.6017029446393263 -0.0007226039791255796 0.0
1.6218581897944084 -0.0006840327652797671 0.0
1.641995894472529 -0.0006428940705546945 0.0
1.662114721124724 -0.0005995782033207474 0.0
1.6822134079969364 -0.0005544999108597933 0.0
1.7022907736416382 -0.0005080967344593673 0.0
1.7223457206639283 -0.00046082729761687 0.0
1.7423772386572138 -0.0004131695439849536 0.0
1.7623844062867262 -0.00036561894249086444 0.0
1.782366392482485 -0.0003186866777970891 0.0
1.8023224567066503 -0.0002728978449372117 0.0
1.8222519482636708 -0.0002287896675586053 0.0
1.8421543046250388 -0.00018690975973288632 0.0
1.8620290487439153 -0.0001478144517565593 0.0
1.8818757853381896 -0.00011206720075999008 0.0
1.901694196123826 -8.023710727482208e-05 0.0
1.9214840339834094 -5.289755918177194e-05 0.0
1.941245116057769 -3.06250246761147e-05 0.0
1.9609773157512236 -1.3998016052254871e-05 0.0
1.9806805536434513 -3.5962462269812887e-06 0.0

CELLS 100 300
2 0 2
2 2 3
2 3 4
2 4 5
2 5 6
2 6 7
2 7 8
2 8 9
2 9 10
2 10 11
2 11 12
2 12 13
2 13 14
2 14 15
2 15 16
2 16 17
2 17 18
2 18 19
2 19 20
2 20 21
2 21 22
2 22 23
2 23 24
2 24 25
2 25 26
2 26 27
2 27 28
2 28 29
2 29 30
2 30 31
2 31 32
2 32 33
2 33 34
2 34 35
2 35 36
2 36 37
2 37 38
2 38 39
2 39 40
2 40 41
2 41 42
2 42 43
2 43 44
2 44 45
2 45 46
2 46 47
2 47 48
2 48 49
2 49 50
2 50 51
2 51 52
2 52 53
2 53 54
2 54 55
2 55 56
2 56 57
2 57 58
2 58 59
2 59 60
2 60 61
2 61 62
2 62 63
2 63 64
2 64 65
2 65 66
2 66 67
2 67 68
2 68 69
2 69 70
2 70 71
2 71 72
2 72 73
2 73 74
2 74 75
2 75 76
2 76 77
2 77 78
2 78 79
2 79 80
2 80 81
2 81 82
2 82 83
2 83 84
2 84 85
2 85 86
2 86 87
2 87 88
2 88 89
2 89 90
2 90 91
2 91 92
2 92 93
2 93 94
2 94 95
2 95 96
2 96 97
2 97 98
2 98 99
2 99 100
2 100 1

CELL_TYPES 100
3
3
3
3
3
3
3
3
3
3
3
3
3
3
3
3
3
3
3
3
3
3
3
3
3
3
3
3
3
3
3
3
3
3
3
3
3
3
3
3
3
3
3
3
3
3
3
3
3
3
3
3
3
3
3
3
3
3
3
3
3
3
3
3
3
3
3
3
3
3
3
3
3
3
3
3
3
3
3
3
3
3
3
3
3
3
3
3
3
3
3
3
3
3
3
3
3
3
3
3

POINT_DATA 101
SCALARS MODE2_619.3044_Hz float 1
LOOKUP_TABLE default
0.026678326394251408
0.0
0.00027042069938445454
0.02669908300799135
0.05122620198059031
0.0735970870188794
0.09382103666871622
0.11191006164386384
0.12787948854937414
0.1417486829959544
0.15354173192876894
0.16328807272747556
0.17102307352285254
0.17678857506277895
0.18063340979499545
0.18261392092327147
0.18279451462093704
0.18124829451167088
0.1780578524601362
0.17331632962096333
0.16712892693404371
0.1596151531053246
0.1509122830652464
0.1411808183798074
0.1306132909667855
0.1194486805475529
0.10799616053170648
0.09667354918822064
0.08606517552255694
0.07699038186627889
0.07052139906996296
0.06779307673419194
0.06950141315773865
0.07546310527554023
0.08478647049388952
0.09641173806823972
0.10945160536275443
0.1232537727216953
0.13735162014846516
0.1514044560584662
0.16515386844508056
0.1783958959139839
0.19096401355272147
0.20271881058131203
0.21354169713991591
0.22333103645467836
0.23199975169910905
0.23947384093247262
0.24569145754368366
0.25060234552465505
0.2541674979512153
0.2563589555978693
0.2571596933929035
0.2565635628299333
0.254575272935649
0.25121040379506954
0.24649545700115244
0.2404679585089744
0.23317664320750914
0.22468176974532517
0.2150556428734326
0.20438346558902168
0.1927647163133764
0.18031536755703845
0.16717146778711814
0.15349495947737
0.13948320450629575
0.12538466713938304
0.11152460413667803
0.09834571135527329
0.08646546035876494
0.07673032312148696
0.07018092003459094
0.06776358520223785
0.06979752698318221
0.07570959356789336
0.08439972464774602
0.09476895026187446
0.10595814165819621
0.11735092830459838
0.1285076113813851
0.13910468075092958
0.14889365925404777
0.1576754861769326
0.16528493749393947
0.17158112105141782
0.17644159358225697
0.17975864487126475
0.18143689083567074
0.18139166359647785
0.17954788762880722
0.17583924915807303
0.17020753655746107
0.1626020725539293
0.1529791858672218
0.1413016869830732
0.1275383239097795
0.11166320132918309
0.09365515225077523
0.07349705764894668
0.05117512820321649

