# vtk DataFile Version 2.0
mesh vtk view
ASCII
DATASET UNSTRUCTURED_GRID
POINTS 101 double
-0.008160107971251681 0.0 0.0
2.0 0.0 0.0
0.0199999999999621 -8.271366321966993e-05 0.0
0.03183989202872453 -0.00032195436919925255 0.0
0.04434726619929348 -0.0007043755675465294 0.0
0.057521737719231865 -0.0012166438611753575 0.0
0.07136233066739835 -0.0018454534673145856 0.0
0.0858672183763525 -0.0025775456174731534 0.0
0.10103348914545729 -0.003399732390395 0.0
0.11685693721378887 -0.00429892447385237 0.0
0.13333187888080886 -0.005262162353846841 0.0
0.15045099361364755 -0.006276650433558865 0.0
0.16820518992379832 -0.007329793589341409 0.0
0.1865834957339449 -0.008409235677304753 0.0
0.20557297288843476 -0.009502899511676028 0.0
0.2251586553895381 -0.010599027845218129 0.0
0.24532351086697207 -0.011686224892605141 0.0
0.26604842471117635 -0.012753497949826175 0.0
0.28731220622252357 -0.013790298676440934 0.0
0.30909161604931595 -0.014786563622836207 0.0
0.33136141410884773 -0.015732753601529294 0.0
0.35409442710797434 -0.016619891520001297 0.0
0.3772616347034116 -0.017439598312474196 0.0
0.40083227326894044 -0.018184126629411972 0.0
0.4247739561662963 -0.018846391966258487 0.0
0.4490528093504206 -0.01942000093693632 0.0
0.4736336210780837 -0.01989927642282396 0.0
0.4984800044324327 -0.02027927935419599 0.0
0.5235545713251863 -0.02055582690833308 0.0
0.5488191165936026 -0.020725506936557815 0.0
0.5742348107713082 -0.02078568846119245 0.0
0.5997624000810767 -0.020734528112723014 0.0
0.6253624121739139 -0.020570972407140196 0.0
0.6509953661227299 -0.020294755793358328 0.0
0.6766219851705845 -0.019906394430630497 0.0
0.702203410733185 -0.019407175685819792 0.0
0.7277014161630819 -0.018799143370092485 0.0
0.7530786187989256 -0.018085078763905246 0.0
0.778298688847147 -0.017268477507902884 0.0
0.8033265536755433 -0.016353522465367424 0.0
0.8281285961382318 -0.015345052689004336 0.0
0.8526728455992407 -0.014248528650965802 0.0
0.8769291603772934 -0.013069993919946128 0.0
0.9008694003969372 -0.011816033492797043 0.0
0.9244675889006583 -0.010493729010268482 0.0
0.9477000621526928 -0.009110611107053367 0.0
0.9705456061474438 -0.007674609165187322 0.0
0.9929855794233121 -0.006193998756915432 0.0
1.0150040211758395 -0.004677347078289441 0.0
1.0365877439618145 -0.0031334566879142713 0.0
1.0577264103878483 -0.0015713078763435308 0.0
1.0784125932823472 -5.655265528200308e-13 0.0
1.098641818958029 0.0015713078752201206 0.0
1.1184125932826652 0.0031334566868065324 0.0
1.1377264103884093 0.004677347077201697 0.0
1.1565877439625865 0.0061939987558517024 0.0
1.1750040211768122 0.007674609164151475 0.0
1.1929855794244726 0.009110611106048884 0.0
1.210545606148778 0.010493729009298503 0.0
1.2277000621541854 0.011816033491864322 0.0
1.2444675889022903 0.013069993919052957 0.0
1.2608694003986929 0.01424852865011425 0.0
1.2769291603791546 0.01534505268819595 0.0
1.2926728456011882 0.016353522464603358 0.0
1.308128596140249 0.01726847750718398 0.0
1.3233265536776115 0.01808507876323193 0.0
1.338298688849249 0.018799143369464776 0.0
1.353078618801042 0.019407175685237275 0.0
1.3677014161651961 0.019906394430092525 0.0
1.3822034107352807 0.020294755792863894 0.0
1.39662198517265 0.020570972406688048 0.0
1.4109953661247505 0.020734528112311627 0.0
1.4253624121758797 0.020785688460820118 0.0
1.4397624000829772 0.020725506936222653 0.0
1.4542348107731378 0.020555826908033127 0.0
1.4688191165953552 0.020279279353929196 0.0
1.4835545713268599 0.019899276422588208 0.0
1.4984800044340214 0.019420000936729437 0.0
1.513633621079585 0.01884639196607831 0.0
1.529052809351831 0.018184126629256336 0.0
1.5447739561676175 0.017439598312340907 0.0
1.5608322732701723 0.016619891519888318 0.0
1.5772616347045572 0.01573275360143463 0.0
1.5940944271090327 0.014786563622757964 0.0
1.6113614141098207 0.013790298676377181 0.0
1.629091616050204 0.012753497949775235 0.0
1.6473122062233405 0.01168622489256544 0.0
1.6660484247119105 0.010599027845188002 0.0
1.6853235108676181 0.009502899511653926 0.0
1.7051586553901057 0.008409235677289876 0.0
1.7255729728889262 0.0073297935893330435 0.0
1.7465834957343729 0.006276650433555865 0.0
1.7682051899241766 0.005262162353847918 0.0
1.7904509936139794 0.004298924473856382 0.0
1.813331878881095 0.0033997323904008613 0.0
1.836856937214031 0.0025775456174797697 0.0
1.8610334891456608 0.0018454534673209063 0.0
1.8858672183765184 0.0012166438611807536 0.0
1.9113623306675238 0.0007043755675506375 0.0
1.9375217377193172 0.0003219543692018618 0.0
1.9643472661993442 8.271366322056957e-05 0.0

CELLS 100 300
2 0 2
2 2 3
2 3 4
2 4 5
2 5 6
2 6 7
2 7 8
2 8 9
2 9 10
2 10 11
2 11 12
2 12 13
2 13 14
2 14 15
2 15 16
2 16 17
2 17 18
2 18 19
2 19 20
2 20 21
2 21 22
2 22 23
2 23 24
2 24 25
2 25 26
2 26 27
2 27 28
2 28 29
2 29 30
2 30 31
2 31 32
2 32 33
2 33 34
2 34 35
2 35 36
2 36 37
2 37 38
2 38 39
2 39 40
2 40 41
2 41 42
2 42 43
2 43 44
2 44 45
2 45 46
2 46 47
2 47 48
2 48 49
2 49 50
2 50 51
2 51 52
2 52 53
2 53 54
2 54 55
2 55 56
2 56 57
2 57 58
2 58 59
2 59 60
2 60 61
2 61 62
2 62 63
2 63 64
2 64 65
2 65 66
2 66 67
2 67 68
2 68 69
2 69 70
2 70 71
2 71 72
2 72 73
2 73 74
2 74 75
2 75 76
2 76 77
2 77 78
2 78 79
2 79 80
2 80 81
2 81 82
2 82 83
2 83 84
2 84 85
2 85 86
2 86 87
2 87 88
2 88 89
2 89 90
2 90 91
2 91 92
2 92 93
2 93 94
2 94 95
2 95 96
2 96 97
2 97 98
2 98 99
2 99 100
2 100 1

CELL_TYPES 100
3
3
3
3
3
3
3
3
3
3
3
3
3
3
3
3
3
3
3
3
3
3
3
3
3
3
3
3
3
3
3
3
3
3
3
3
3
3
3
3
3
3
3
3
3
3
3
3
3
3
3
3
3
3
3
3
3
3
3
3
3
3
3
3
3
3
3
3
3
3
3
3
3
3
3
3
3
3
3
3
3
3
3
3
3
3
3
3
3
3
3
3
3
3
3
3
3
3
3
3

POINT_DATA 101
SCALARS MODE2_619.3044_Hz float 1
LOOKUP_TABLE default
0.026678326394251408
0.0
0.00027042069938445454
0.02669908300799135
0.05122620198059031
0.0735970870188794
0.09382103666871622
0.11191006164386384
0.12787948854937414
0.1417486829959544
0.15354173192876894
0.16328807272747556
0.17102307352285254
0.17678857506277895
0.18063340979499545
0.18261392092327147
0.18279451462093704
0.18124829451167088
0.1780578524601362
0.17331632962096333
0.16712892693404371
0.1596151531053246
0.1509122830652464
0.1411808183798074
0.1306132909667855
0.1194486805475529
0.10799616053170648
0.09667354918822064
0.08606517552255694
0.07699038186627889
0.07052139906996296
0.06779307673419194
0.06950141315773865
0.07546310527554023
0.08478647049388952
0.09641173806823972
0.10945160536275443
0.1232537727216953
0.13735162014846516
0.1514044560584662
0.16515386844508056
0.1783958959139839
0.19096401355272147
0.20271881058131203
0.21354169713991591
0.22333103645467836
0.23199975169910905
0.23947384093247262
0.24569145754368366
0.25060234552465505
0.2541674979512153
0.2563589555978693
0.2571596933929035
0.2565635628299333
0.254575272935649
0.25121040379506954
0.24649545700115244
0.2404679585089744
0.23317664320750914
0.22468176974532517
0.2150556428734326
0.20438346558902168
0.1927647163133764
0.18031536755703845
0.16717146778711814
0.15349495947737
0.13948320450629575
0.12538466713938304
0.11152460413667803
0.09834571135527329
0.08646546035876494
0.07673032312148696
0.07018092003459094
0.06776358520223785
0.06979752698318221
0.07570959356789336
0.08439972464774602
0.09476895026187446
0.10595814165819621
0.11735092830459838
0.1285076113813851
0.13910468075092958
0.14889365925404777
0.1576754861769326
0.16528493749393947
0.17158112105141782
0.17644159358225697
0.17975864487126475
0.18143689083567074
0.18139166359647785
0.17954788762880722
0.17583924915807303
0.17020753655746107
0.1626020725539293
0.1529791858672218
0.1413016869830732
0.1275383239097795
0.11166320132918309
0.09365515225077523
0.07349705764894668
0.05117512820321649

