# vtk DataFile Version 2.0
mesh vtk view
ASCII
DATASET UNSTRUCTURED_GRID
POINTS 101 double
-0.008869682577447479 0.0 0.0
2.0 0.0 0.0
0.0199999999999621 -8.990615567355426e-05 0.0
0.031130317422533225 -0.0003499504013035354 0.0
0.04298615891228545 -0.0007656256168984015 0.0
0.05556710621657 -0.001322438979538432 0.0
0.06887209855153743 -0.00200592768186368 0.0
0.08289915040910001 -0.0028016800189925584 0.0
0.09764509689726052 -0.0036953612939076086 0.0
0.11310536653675404 -0.004672743993317793 0.0
0.1292737813922132 -0.0057197416889639575 0.0
0.1461423843626927 -0.006822446123433548 0.0
0.16370129339546796 -0.007967166944936314 0.0
0.18193858231954316 -0.009140473562287775 0.0
0.2008401879222534 -0.010329238599647857 0.0
0.22038984281476195 -0.011520682440454488 0.0
0.24056903355110829 -0.012702418361527327 0.0
0.26135698338177016 -0.01386249777155019 0.0
0.2827306589375874 -0.014989455083087971 0.0
0.30466480005367125 -0.016072351763952396 0.0
0.3271319718575152 -0.01710081913209706 0.0
0.3501026381609187 -0.018065099478262278 0.0
0.37354525511248604 -0.018956085122254558 0.0
0.39742638398806596 -0.019765355031969536 0.0
0.4217108219199796 -0.020485208658976614 0.0
0.4463617492940328 -0.021108696670582957 0.0
0.4713408924762804 -0.021629648285678215 0.0
0.49660870047014305 -0.02204269495021303 0.0
0.5221245340492282 -0.02234329011775335 0.0
0.5478468658627291 -0.0225277249310411 0.0
0.573733489968936 -0.022593139631730923 0.0
0.5997417392186896 -0.022537530557307624 0.0
0.6258287088848219 -0.022359752616456733 0.0
0.6519514849161487 -0.022059517166693833 0.0
0.6780673751855609 -0.021637385250685325 0.0
0.7041341421014362 -0.021094756180238903 0.0
0.7301102349600249 -0.02043385148923096 0.0
0.755955020433773 -0.019657694308592658 0.0
0.7816290096166275 -0.018770084247720527 0.0
0.8070940800822807 -0.017775567897138505 0.0
0.8323136914547732 -0.016679405096743843 0.0
0.8572530930428315 -0.015487531142354133 0.0
0.8818795221494157 -0.014206515130376225 0.0
0.90616239173599 -0.012843514666083742 0.0
0.9300734661965615 -0.011406227185074438 0.0
0.9535870240792128 -0.009902838159840615 0.0
0.9766800066822081 -0.008341966483899262 0.0
0.9993321515472874 -0.006732607344473295 0.0
1.0215261099739528 -0.005084072911184174 0.0
1.0432475477848002 -0.003405931182515512 0.0
1.0644852286826683 -0.001707943343851664 0.0
1.0852310796549527 -6.147027748043813e-13 0.0
1.1054802379980821 0.0017079433426305658 0.0
1.125231079655291 0.003405931181311448 0.0
1.1444852286832692 0.005084072910001845 0.0
1.1632475477856312 0.006732607343317067 0.0
1.1815261099750025 0.008341966482773343 0.0
1.1993321515485416 0.009902838158748787 0.0
1.2166800066836516 0.011406227184020111 0.0
1.2335870240808287 0.012843514665069914 0.0
1.2500734661983297 0.014206515129405387 0.0
1.266162391737893 0.015487531141428533 0.0
1.2818795221514339 0.01667940509586516 0.0
1.2972530930449442 0.017775567896308 0.0
1.312313691456962 0.018770084246939107 0.0
1.3270940800845255 0.019657694307860792 0.0
1.3416290096189094 0.020433851488548666 0.0
1.355955020436071 0.021094756179605736 0.0
1.3701102349623213 0.02163738525010057 0.0
1.384134142103713 0.022059517166156402 0.0
1.3980673751878052 0.02235975261596527 0.0
1.4119514849183448 0.02253753055686046 0.0
1.4258287088869588 0.022593139631326215 0.0
1.4397417392207557 0.022527724930676795 0.0
1.4537334899709258 0.022343290117427313 0.0
1.4678468658646358 0.022042694949923038 0.0
1.4821245340510494 0.021629648285421965 0.0
1.4966087004718724 0.021108696670358085 0.0
1.5113408924779155 0.02048520865878077 0.0
1.5263617492955694 0.019765355031800363 0.0
1.5417108219214197 0.01895608512210968 0.0
1.5574263839894096 0.018065099478139474 0.0
1.573545255113736 0.017100819131994162 0.0
1.5901026381620746 0.01607235176386735 0.0
1.6071319718585788 0.014989455083018674 0.0
1.624664800054643 0.01386249777149482 0.0
1.6427306589384822 0.012702418361484172 0.0
1.6613569833825756 0.01152068244042174 0.0
1.6805690335518184 0.010329238599623832 0.0
1.7003898428153872 0.009140473562271604 0.0
1.7208401879227964 0.007967166944927221 0.0
1.7419385823200164 0.006822446123430287 0.0
1.7637012933958853 0.005719741688965128 0.0
1.7861423843630577 0.004672743993322155 0.0
1.8092737813925266 0.0036953612939139794 0.0
1.8331053665370178 0.0028016800189997497 0.0
1.8576450968974805 0.0020059276818705503 0.0
1.8828991504092776 0.0013224389795442975 0.0
1.90887209855167 0.0007656256169028668 0.0
1.9355671062166584 0.0003499504013063715 0.0
1.9629861589123352 8.990615567453215e-05 0.0

CELLS 100 300
2 0 2
2 2 3
2 3 4
2 4 5
2 5 6
2 6 7
2 7 8
2 8 9
2 9 10
2 10 11
2 11 12
2 12 13
2 13 14
2 14 15
2 15 16
2 16 17
2 17 18
2 18 19
2 19 20
2 20 21
2 21 22
2 22 23
2 23 24
2 24 25
2 25 26
2 26 27
2 27 28
2 28 29
2 29 30
2 30 31
2 31 32
2 32 33
2 33 34
2 34 35
2 35 36
2 36 37
2 37 38
2 38 39
2 39 40
2 40 41
2 41 42
2 42 43
2 43 44
2 44 45
2 45 46
2 46 47
2 47 48
2 48 49
2 49 50
2 50 51
2 51 52
2 52 53
2 53 54
2 54 55
2 55 56
2 56 57
2 57 58
2 58 59
2 59 60
2 60 61
2 61 62
2 62 63
2 63 64
2 64 65
2 65 66
2 66 67
2 67 68
2 68 69
2 69 70
2 70 71
2 71 72
2 72 73
2 73 74
2 74 75
2 75 76
2 76 77
2 77 78
2 78 79
2 79 80
2 80 81
2 81 82
2 82 83
2 83 84
2 84 85
2 85 86
2 86 87
2 87 88
2 88 89
2 89 90
2 90 91
2 91 92
2 92 93
2 93 94
2 94 95
2 95 96
2 96 97
2 97 98
2 98 99
2 99 100
2 100 1

CELL_TYPES 100
3
3
3
3
3
3
3
3
3
3
3
3
3
3
3
3
3
3
3
3
3
3
3
3
3
3
3
3
3
3
3
3
3
3
3
3
3
3
3
3
3
3
3
3
3
3
3
3
3
3
3
3
3
3
3
3
3
3
3
3
3
3
3
3
3
3
3
3
3
3
3
3
3
3
3
3
3
3
3
3
3
3
3
3
3
3
3
3
3
3
3
3
3
3
3
3
3
3
3
3

POINT_DATA 101
SCALARS MODE2_619.3044_Hz float 1
LOOKUP_TABLE default
0.026678326394251408
0.0
0.00027042069938445454
0.02669908300799135
0.05122620198059031
0.0735970870188794
0.09382103666871622
0.11191006164386384
0.12787948854937414
0.1417486829959544
0.15354173192876894
0.16328807272747556
0.17102307352285254
0.17678857506277895
0.18063340979499545
0.18261392092327147
0.18279451462093704
0.18124829451167088
0.1780578524601362
0.17331632962096333
0.16712892693404371
0.1596151531053246
0.1509122830652464
0.1411808183798074
0.1306132909667855
0.1194486805475529
0.10799616053170648
0.09667354918822064
0.08606517552255694
0.07699038186627889
0.07052139906996296
0.06779307673419194
0.06950141315773865
0.07546310527554023
0.08478647049388952
0.09641173806823972
0.10945160536275443
0.1232537727216953
0.13735162014846516
0.1514044560584662
0.16515386844508056
0.1783958959139839
0.19096401355272147
0.20271881058131203
0.21354169713991591
0.22333103645467836
0.23199975169910905
0.23947384093247262
0.24569145754368366
0.25060234552465505
0.2541674979512153
0.2563589555978693
0.2571596933929035
0.2565635628299333
0.254575272935649
0.25121040379506954
0.24649545700115244
0.2404679585089744
0.23317664320750914
0.22468176974532517
0.2150556428734326
0.20438346558902168
0.1927647163133764
0.18031536755703845
0.16717146778711814
0.15349495947737
0.13948320450629575
0.12538466713938304
0.11152460413667803
0.09834571135527329
0.08646546035876494
0.07673032312148696
0.07018092003459094
0.06776358520223785
0.06979752698318221
0.07570959356789336
0.08439972464774602
0.09476895026187446
0.10595814165819621
0.11735092830459838
0.1285076113813851
0.13910468075092958
0.14889365925404777
0.1576754861769326
0.16528493749393947
0.17158112105141782
0.17644159358225697
0.17975864487126475
0.18143689083567074
0.18139166359647785
0.17954788762880722
0.17583924915807303
0.17020753655746107
0.1626020725539293
0.1529791858672218
0.1413016869830732
0.1275383239097795
0.11166320132918309
0.09365515225077523
0.07349705764894668
0.05117512820321649

