# vtk DataFile Version 2.0
mesh vtk view
ASCII
DATASET UNSTRUCTURED_GRID
POINTS 101 double
-0.009579257183643277 0.0 0.0
2.0 0.0 0.0
0.0199999999999621 -9.709864812743861e-05 0.0
0.03042074281634192 -0.0003779464334078182 0.0
0.04162505162527742 -0.0008268756662502736 0.0
0.053612474713908134 -0.0014282340979015064 0.0
0.06638186643567653 -0.0021664018964127744 0.0
0.07993108244184752 -0.003025814420511963 0.0
0.09425670464906373 -0.003990990197420217 0.0
0.10935379585971922 -0.005046563512783216 0.0
0.12521568390361756 -0.0061773210240810734 0.0
0.14183377511173784 -0.007368241813308232 0.0
0.15919739686713757 -0.008604540300531219 0.0
0.1772936689051414 -0.009871711447270797 0.0
0.19610740295607204 -0.011155577687619683 0.0
0.21562103023998577 -0.012442337035690846 0.0
0.2358145562352445 -0.013718611830449513 0.0
0.256665542052364 -0.014971497593274204 0.0
0.2781491116526513 -0.016188611489735008 0.0
0.3002379840580265 -0.017358139905068588 0.0
0.3229025296061826 -0.01846888466266482 0.0
0.3461108492138631 -0.01951030743652326 0.0
0.3698288755215605 -0.020472571932034923 0.0
0.39402049470719147 -0.021346583434527097 0.0
0.4186476876736629 -0.02212402535169474 0.0
0.44367068923764497 -0.02279739240422959 0.0
0.4690481638744771 -0.023360020148532473 0.0
0.4947373965078534 -0.023806110546230073 0.0
0.5206944967732701 -0.024130753327173616 0.0
0.5468746151318558 -0.02432994292552439 0.0
0.5732321691665638 -0.024400590802269397 0.0
0.5997210783563023 -0.024340533001892234 0.0
0.6262950055957299 -0.024148532825773273 0.0
0.6529076037095676 -0.023824278540029338 0.0
0.6795127652005374 -0.02336837607074015 0.0
0.7060648734696874 -0.022782336674658014 0.0
0.7325190537569679 -0.02206855960836944 0.0
0.7588314220686205 -0.02123030985328007 0.0
0.784959330386108 -0.020271690987538168 0.0
0.8108616064890182 -0.019197613328909586 0.0
0.8364987867713147 -0.01801375750448335 0.0
0.8618333404864224 -0.016726533633742463 0.0
0.8868298839215379 -0.015343036340806322 0.0
0.9114553830750428 -0.01387099583937044 0.0
0.9356793434924647 -0.012318725359880392 0.0
0.9594739860057327 -0.010695065212627865 0.0
0.9828144072169723 -0.009009323802611203 0.0
1.0056787236712628 -0.007271215932031159 0.0
1.028048198772066 -0.005490798744078909 0.0
1.049907351607786 -0.003678405677116753 0.0
1.071244046977488 -0.001844578811359797 0.0
1.0920495660275582 -6.638789967887317e-13 0.0
1.1123186570381356 0.001844578810041011 0.0
1.1320495660279168 0.003678405675816364 0.0
1.151244046978129 0.005490798742801992 0.0
1.1699073516086758 0.007271215930782433 0.0
1.1880481987731926 0.00900932380139521 0.0
1.2056787236726105 0.01069506521144869 0.0
1.2228144072185252 0.01231872535874172 0.0
1.2394739860074722 0.013870995838275507 0.0
1.2556793434943692 0.015343036339757818 0.0
1.2714553830770932 0.016726533632742815 0.0
1.2868298839237131 0.018013757503534372 0.0
1.3018333404887001 0.019197613328012637 0.0
1.316498786773675 0.02027169098669424 0.0
1.3308616064914394 0.021230309852489658 0.0
1.3449593303885699 0.02206855960763256 0.0
1.3588314220711002 0.022782336673974193 0.0
1.3725190537594463 0.023368376070108613 0.0
1.386064873472145 0.023824278539448913 0.0
1.3995127652029604 0.02414853282524249 0.0
1.412907603711939 0.024340533001409297 0.0
1.426295005598038 0.02440059080183231 0.0
1.4397210783585344 0.024329942925130937 0.0
1.4532321691687138 0.024130753326821495 0.0
1.4668746151339165 0.02380611054591688 0.0
1.480694496775239 0.023360020148255722 0.0
1.4947373965097235 0.02279739240398673 0.0
1.5090481638762456 0.022124025351483233 0.0
1.523670689239308 0.021346583434344393 0.0
1.538647687675222 0.020472571931878455 0.0
1.5540204947086467 0.019510307436390633 0.0
1.5698288755229153 0.018468884662553694 0.0
1.5861108492151166 0.017358139904976738 0.0
1.602902529607337 0.01618861148966017 0.0
1.6202379840590821 0.014971497593214405 0.0
1.6381491116536242 0.013718611830402907 0.0
1.6566655420532408 0.012442337035655478 0.0
1.675814556236019 0.011155577687593739 0.0
1.695621030240669 0.009871711447253332 0.0
1.7161074029566665 0.008604540300521398 0.0
1.73729366890566 0.00736824181330471 0.0
1.7591973968675942 0.006177321024082338 0.0
1.781833775112136 0.005046563512787926 0.0
1.8052156839039584 0.003990990197427098 0.0
1.8293537958600046 0.003025814420519729 0.0
1.8542567046493001 0.0021664018964201942 0.0
1.8799310824420365 0.0014282340979078411 0.0
1.9063818664358163 0.0008268756662550962 0.0
1.9336124747139996 0.00037794643341088123 0.0
1.9616250516253262 9.709864812849472e-05 0.0

CELLS 100 300
2 0 2
2 2 3
2 3 4
2 4 5
2 5 6
2 6 7
2 7 8
2 8 9
2 9 10
2 10 11
2 11 12
2 12 13
2 13 14
2 14 15
2 15 16
2 16 17
2 17 18
2 18 19
2 19 20
2 20 21
2 21 22
2 22 23
2 23 24
2 24 25
2 25 26
2 26 27
2 27 28
2 28 29
2 29 30
2 30 31
2 31 32
2 32 33
2 33 34
2 34 35
2 35 36
2 36 37
2 37 38
2 38 39
2 39 40
2 40 41
2 41 42
2 42 43
2 43 44
2 44 45
2 45 46
2 46 47
2 47 48
2 48 49
2 49 50
2 50 51
2 51 52
2 52 53
2 53 54
2 54 55
2 55 56
2 56 57
2 57 58
2 58 59
2 59 60
2 60 61
2 61 62
2 62 63
2 63 64
2 64 65
2 65 66
2 66 67
2 67 68
2 68 69
2 69 70
2 70 71
2 71 72
2 72 73
2 73 74
2 74 75
2 75 76
2 76 77
2 77 78
2 78 79
2 79 80
2 80 81
2 81 82
2 82 83
2 83 84
2 84 85
2 85 86
2 86 87
2 87 88
2 88 89
2 89 90
2 90 91
2 91 92
2 92 93
2 93 94
2 94 95
2 95 96
2 96 97
2 97 98
2 98 99
2 99 100
2 100 1

CELL_TYPES 100
3
3
3
3
3
3
3
3
3
3
3
3
3
3
3
3
3
3
3
3
3
3
3
3
3
3
3
3
3
3
3
3
3
3
3
3
3
3
3
3
3
3
3
3
3
3
3
3
3
3
3
3
3
3
3
3
3
3
3
3
3
3
3
3
3
3
3
3
3
3
3
3
3
3
3
3
3
3
3
3
3
3
3
3
3
3
3
3
3
3
3
3
3
3
3
3
3
3
3
3

POINT_DATA 101
SCALARS MODE2_619.3044_Hz float 1
LOOKUP_TABLE default
0.026678326394251408
0.0
0.00027042069938445454
0.02669908300799135
0.05122620198059031
0.0735970870188794
0.09382103666871622
0.11191006164386384
0.12787948854937414
0.1417486829959544
0.15354173192876894
0.16328807272747556
0.17102307352285254
0.17678857506277895
0.18063340979499545
0.18261392092327147
0.18279451462093704
0.18124829451167088
0.1780578524601362
0.17331632962096333
0.16712892693404371
0.1596151531053246
0.1509122830652464
0.1411808183798074
0.1306132909667855
0.1194486805475529
0.10799616053170648
0.09667354918822064
0.08606517552255694
0.07699038186627889
0.07052139906996296
0.06779307673419194
0.06950141315773865
0.07546310527554023
0.08478647049388952
0.09641173806823972
0.10945160536275443
0.1232537727216953
0.13735162014846516
0.1514044560584662
0.16515386844508056
0.1783958959139839
0.19096401355272147
0.20271881058131203
0.21354169713991591
0.22333103645467836
0.23199975169910905
0.23947384093247262
0.24569145754368366
0.25060234552465505
0.2541674979512153
0.2563589555978693
0.2571596933929035
0.2565635628299333
0.254575272935649
0.25121040379506954
0.24649545700115244
0.2404679585089744
0.23317664320750914
0.22468176974532517
0.2150556428734326
0.20438346558902168
0.1927647163133764
0.18031536755703845
0.16717146778711814
0.15349495947737
0.13948320450629575
0.12538466713938304
0.11152460413667803
0.09834571135527329
0.08646546035876494
0.07673032312148696
0.07018092003459094
0.06776358520223785
0.06979752698318221
0.07570959356789336
0.08439972464774602
0.09476895026187446
0.10595814165819621
0.11735092830459838
0.1285076113813851
0.13910468075092958
0.14889365925404777
0.1576754861769326
0.16528493749393947
0.17158112105141782
0.17644159358225697
0.17975864487126475
0.18143689083567074
0.18139166359647785
0.17954788762880722
0.17583924915807303
0.17020753655746107
0.1626020725539293
0.1529791858672218
0.1413016869830732
0.1275383239097795
0.11166320132918309
0.09365515225077523
0.07349705764894668
0.05117512820321649

