# vtk DataFile Version 2.0
mesh vtk view
ASCII
DATASET UNSTRUCTURED_GRID
POINTS 101 double
0.00532180954646849 0.0 0.0
2.0 0.0 0.0
0.0199999999999621 5.3943693404132576e-05 0.0
0.04532180954635932 0.0002099702407821213 0.0
0.07020830465244604 0.0004593753701390411 0.0
0.0946597362698073 0.0007934633877230594 0.0
0.11867674086875558 0.0012035566091182083 0.0
0.14226050975414975 0.0016810080113955355 0.0
0.16541294186119618 0.002217216776344566 0.0
0.1881367800774508 0.0028036463959906764 0.0
0.21043573116412634 0.0034318450133783754 0.0
0.23231456938178968 0.004093467674060131 0.0
0.2537792239620754 0.00478030016696179 0.0
0.2748368506075783 0.005484284137372667 0.0
0.2954958872458808 0.006197543159788716 0.0
0.31576609431028546 0.0069124094642726945 0.0
0.33565857986838415 0.007621451016916399 0.0
0.3551858099698936 0.008317498662930117 0.0
0.3743616046363099 0.008993673049852786 0.0
0.39320111996656604 0.009643411058371442 0.0
0.41172081688416645 0.010260491479258237 0.0
0.42993841710203085 0.010839059686957371 0.0
0.44787284693099705 0.011373651073352739 0.0
0.4655441696055557 0.011859213019181726 0.0
0.482973506846314 0.012291125195385973 0.0
0.5001829504217888 0.012665218002349777 0.0
0.5171954645123468 0.012977788971406935 0.0
0.5340347797159357 0.013225616970127823 0.0
0.5507252795683912 0.013405974070652015 0.0
0.5672918804801974 0.013516634958624665 0.0
0.5837599060163798 0.013555883779038559 0.0
0.6001549564664341 0.01352251833438458 0.0
0.6165027746666614 0.013415851569874045 0.0
0.6328291090477718 0.013235710300016305 0.0
0.6491595748860313 0.012982431150411198 0.0
0.6655195147364127 0.012656853708143345 0.0
0.6819338590211659 0.012260310893538582 0.0
0.6984269877368235 0.011794616585155598 0.0
0.7150225942270175 0.01126205054863232 0.0
0.7317435519475324 0.010665340738283107 0.0
0.7486117851239434 0.01000764305804631 0.0
0.7656481441710149 0.009292518685412483 0.0
0.782872286706971 0.008523909078225738 0.0
0.800302564954933 0.007706108799650248 0.0
0.8179559202784968 0.006843736311044665 0.0
0.8358477855488127 0.005941702895904372 0.0
0.8539919959869221 0.005005179890339559 0.0
0.8724007090677809 0.004039564406683979 0.0
0.8910843340116883 0.003050443746710506 0.0
0.9100514713250866 0.002043558709509308 0.0
0.9293088627862723 0.0010247660063109987 0.0
0.9488613522028431 3.6882166488262887e-13 0.0
0.9687118571970146 -0.0010247660055783397 0.0
0.9888613522027743 -0.0020435587087868695 0.0
1.009308862786072 -0.003050443746001108 0.0
1.030051471324738 -0.004039564405990242 0.0
1.0510843340112002 -0.005005179889664008 0.0
1.0724007090671617 -0.005941702895249274 0.0
1.0939919959861801 -0.00684373631041207 0.0
1.1158477855479587 -0.007706108799041951 0.0
1.1379559202775413 -0.008523909077643235 0.0
1.1603025649538883 -0.009292518684857122 0.0
1.1828722867058483 -0.0100076430575191 0.0
1.2056481441698255 -0.010665340737784803 0.0
1.2286117851226996 -0.011262050548163469 0.0
1.2517435519462465 -0.011794616584716481 0.0
1.2750225942257007 -0.012260310893129204 0.0
1.2984269877354868 -0.012656853707763446 0.0
1.3219338590198217 -0.012982431150060347 0.0
1.3455195147350714 -0.013235710299693847 0.0
1.369159574884701 -0.013415851569579166 0.0
1.3928291090464602 -0.013522518334116282 0.0
1.4165027746653767 -0.013555883778795732 0.0
1.4401549564651832 -0.013516634958406082 0.0
1.4637599060151663 -0.013405974070456392 0.0
1.4872918804790232 -0.013225616969953826 0.0
1.51072527956726 -0.012977788971253183 0.0
1.5340347797148508 -0.012665218002214854 0.0
1.55719546451131 -0.012291125195268466 0.0
1.5801829504208007 -0.011859213019080222 0.0
1.6029735068453754 -0.011373651073265812 0.0
1.6255441696046662 -0.010839059686883689 0.0
1.6478728469301551 -0.0102604914791965 0.0
1.6699384171012353 -0.009643411058320414 0.0
1.6917208168834177 -0.008993673049811208 0.0
1.7132011199658637 -0.008317498662896895 0.0
1.7343616046356451 -0.007621451016890507 0.0
1.755185809969272 -0.006912409464253046 0.0
1.7756585798678115 -0.006197543159774301 0.0
1.7957660943097549 -0.005484284137362964 0.0
1.8154958872453943 -0.0047803001669563345 0.0
1.8348368506071453 -0.004093467674058174 0.0
1.853779223961709 -0.003431845013379078 0.0
1.8723145693814902 -0.0028036463959932936 0.0
1.8904357311638937 -0.0022172167763483885 0.0
1.9081367800772822 -0.0016810080113998504 0.0
1.9254129418610892 -0.0012035566091223306 0.0
1.942260509754096 -0.0007934633877265787 0.0
1.9586767408687453 -0.00045937537014172026 0.0
1.9746597362698355 -0.00020997024078382297 0.0
1.9902083046525139 -5.3943693404719306e-05 0.0

CELLS 100 300
2 0 2
2 2 3
2 3 4
2 4 5
2 5 6
2 6 7
2 7 8
2 8 9
2 9 10
2 10 11
2 11 12
2 12 13
2 13 14
2 14 15
2 15 16
2 16 17
2 17 18
2 18 19
2 19 20
2 20 21
2 21 22
2 22 23
2 23 24
2 24 25
2 25 26
2 26 27
2 27 28
2 28 29
2 29 30
2 30 31
2 31 32
2 32 33
2 33 34
2 34 35
2 35 36
2 36 37
2 37 38
2 38 39
2 39 40
2 40 41
2 41 42
2 42 43
2 43 44
2 44 45
2 45 46
2 46 47
2 47 48
2 48 49
2 49 50
2 50 51
2 51 52
2 52 53
2 53 54
2 54 55
2 55 56
2 56 57
2 57 58
2 58 59
2 59 60
2 60 61
2 61 62
2 62 63
2 63 64
2 64 65
2 65 66
2 66 67
2 67 68
2 68 69
2 69 70
2 70 71
2 71 72
2 72 73
2 73 74
2 74 75
2 75 76
2 76 77
2 77 78
2 78 79
2 79 80
2 80 81
2 81 82
2 82 83
2 83 84
2 84 85
2 85 86
2 86 87
2 87 88
2 88 89
2 89 90
2 90 91
2 91 92
2 92 93
2 93 94
2 94 95
2 95 96
2 96 97
2 97 98
2 98 99
2 99 100
2 100 1

CELL_TYPES 100
3
3
3
3
3
3
3
3
3
3
3
3
3
3
3
3
3
3
3
3
3
3
3
3
3
3
3
3
3
3
3
3
3
3
3
3
3
3
3
3
3
3
3
3
3
3
3
3
3
3
3
3
3
3
3
3
3
3
3
3
3
3
3
3
3
3
3
3
3
3
3
3
3
3
3
3
3
3
3
3
3
3
3
3
3
3
3
3
3
3
3
3
3
3
3
3
3
3
3
3

POINT_DATA 101
SCALARS MODE2_619.3044_Hz float 1
LOOKUP_TABLE default
0.026678326394251408
0.0
0.00027042069938445454
0.02669908300799135
0.05122620198059031
0.0735970870188794
0.09382103666871622
0.11191006164386384
0.12787948854937414
0.1417486829959544
0.15354173192876894
0.16328807272747556
0.17102307352285254
0.17678857506277895
0.18063340979499545
0.18261392092327147
0.18279451462093704
0.18124829451167088
0.1780578524601362
0.17331632962096333
0.16712892693404371
0.1596151531053246
0.1509122830652464
0.1411808183798074
0.1306132909667855
0.1194486805475529
0.10799616053170648
0.09667354918822064
0.08606517552255694
0.07699038186627889
0.07052139906996296
0.06779307673419194
0.06950141315773865
0.07546310527554023
0.08478647049388952
0.09641173806823972
0.10945160536275443
0.1232537727216953
0.13735162014846516
0.1514044560584662
0.16515386844508056
0.1783958959139839
0.19096401355272147
0.20271881058131203
0.21354169713991591
0.22333103645467836
0.23199975169910905
0.23947384093247262
0.24569145754368366
0.25060234552465505
0.2541674979512153
0.2563589555978693
0.2571596933929035
0.2565635628299333
0.254575272935649
0.25121040379506954
0.24649545700115244
0.2404679585089744
0.23317664320750914
0.22468176974532517
0.2150556428734326
0.20438346558902168
0.1927647163133764
0.18031536755703845
0.16717146778711814
0.15349495947737
0.13948320450629575
0.12538466713938304
0.11152460413667803
0.09834571135527329
0.08646546035876494
0.07673032312148696
0.07018092003459094
0.06776358520223785
0.06979752698318221
0.07570959356789336
0.08439972464774602
0.09476895026187446
0.10595814165819621
0.11735092830459838
0.1285076113813851
0.13910468075092958
0.14889365925404777
0.1576754861769326
0.16528493749393947
0.17158112105141782
0.17644159358225697
0.17975864487126475
0.18143689083567074
0.18139166359647785
0.17954788762880722
0.17583924915807303
0.17020753655746107
0.1626020725539293
0.1529791858672218
0.1413016869830732
0.1275383239097795
0.11166320132918309
0.09365515225077523
0.07349705764894668
0.05117512820321649

