# vtk DataFile Version 2.0
mesh vtk view
ASCII
DATASET UNSTRUCTURED_GRID
POINTS 101 double
0.0012892013020570135 0.0 0.0
2.0 0.0 0.0
0.0199999999999621 -1.2994242667033047e-05 0.0
0.038710798697966634 -5.115914143662133e-05 0.0
0.05748293377759085 -0.00011326803307259665 0.0
0.07631639721062083 -0.0001980945303987437 0.0
0.09521116842048105 -0.0003044128321704318 0.0
0.11416720844295963 -0.0004309981466627933 0.0
0.13318445439379847 -0.0005766272228399487 0.0
0.15226281424294646 -0.0007400789829747962 0.0
0.17140216189517488 -0.0009201352505968846 0.0
0.19060233257658188 -0.0011155815676566925 0.0
0.20986311852633402 -0.0013252080948090873 0.0
0.22918426499283615 -0.0015478105887376606 0.0
0.24856546653327327 -0.0017821914504646944 0.0
0.26800636361527735 -0.002027160838619991 0.0
0.2875065395191457 -0.0022815378416742196 0.0
0.3070655175388068 -0.0025441517031818198 0.0
0.326682758479495 -0.002813843094123731 0.0
0.3463576584497015 -0.0030894654264904215 0.0
0.36608954694471746 -0.003369886202303077 0.0
0.38587768521873983 -0.0036539883923346716 0.0
0.4057212649421883 -0.003940671838863233 0.0
0.4256194071405265 -0.004228854676866999 0.0
0.4455711614105448 -0.004517474768155681 0.0
0.4655755054097055 -0.004805491143023605 0.0
0.48563134461378715 -0.005091885444109223 0.0
0.5057375123377177 -0.005375663367251534 0.0
0.525892770014111 -0.005655856094247047 0.0
0.5460958077236708 -0.005931521712531346 0.0
0.5663452449712613 -0.006201746616936933 0.0
0.5866396317010905 -0.0064656468888135785 0.0
0.606977449544093 -0.006722369647939204 0.0
0.627357113290257 -0.006971094372797827 0.0
0.6477769725782946 -0.007211034184956488 0.0
0.6682353137947253 -0.007441437093434935 0.0
0.6887303621741109 -0.007661587195130365 0.0
0.7092602840918656 -0.007870805827533925 0.0
0.7298231895407588 -0.008068452670156441 0.0
0.7504171347819362 -0.008253926791267211 0.0
0.7710401251609995 -0.008426667636741348 0.0
0.7916901180794196 -0.008586155958008632 0.0
0.8123650261112962 -0.008731914676298623 0.0
0.8330627202552461 -0.008863509680583623 0.0
0.8537810333109723 -0.008980550556831982 0.0
0.874517763369862 -0.009082691246399538 0.0
0.895270677408765 -0.009169630631605228 0.0
0.9160375149759356 -0.009241113046759342 0.0
0.9368159919579616 -0.009296928713137365 0.0
0.9576038044163738 -0.009336914096620142 0.0
0.9783986324824954 -0.009360952186950506 0.0
0.9991981442990342 -0.009368972697788067 0.0
1.0199999999967637 -0.009360952186976476 0.0
1.040801855694522 -0.009336914096671756 0.0
1.0616013675111668 -0.009296928713214121 0.0
1.0823961955774233 -0.009241113046860566 0.0
1.1031840080359803 -0.00916963063173008 0.0
1.1239624850181595 -0.009082691246547038 0.0
1.1447293225854893 -0.00898055055700101 0.0
1.1654822366245587 -0.008863509680772931 0.0
1.1862189666836205 -0.008731914676506851 0.0
1.2069372797395257 -0.008586155958234278 0.0
1.2276349738836592 -0.008426667636982845 0.0
1.248309881915723 -0.00825392679152293 0.0
1.2689598748343351 -0.008068452670424666 0.0
1.2895828652135934 -0.007870805827812886 0.0
1.3101768104549676 -0.0076615871954182685 0.0
1.3307397159040586 -0.007441437093729958 0.0
1.351269637822014 -0.0072110341852567785 0.0
1.3717646862016 -0.006971094373101565 0.0
1.3922230274182303 -0.006722369648244582 0.0
1.4126428867064653 -0.00646564688911884 0.0
1.4330225504528258 -0.006201746617240344 0.0
1.4533603682960223 -0.00593152171283126 0.0
1.4736547550260417 -0.005655856094541905 0.0
1.4939041922738168 -0.005375663367539882 0.0
1.5141072299835576 -0.005091885444389676 0.0
1.5342624876601274 -0.004805491143294901 0.0
1.5543686553842295 -0.004517474768416658 0.0
1.5744244945884764 -0.004228854677116631 0.0
1.5944288385877976 -0.0039406718391005865 0.0
1.6143805928579702 -0.003653988392558962 0.0
1.6342787350564563 -0.0033698862025136455 0.0
1.6541223147800455 -0.0030894654266867584 0.0
1.673910453054204 -0.002813843094305413 0.0
1.6936423415493496 -0.002544151703348571 0.0
1.7133172415196805 -0.0022815378418258717 0.0
1.7329344824604864 -0.002027160838756519 0.0
1.75249346048026 -0.0017821914505862296 0.0
1.7719936363842321 -0.0015478105888446056 0.0
1.7914345334663324 -0.0013252080949019533 0.0
1.8108157350068472 -0.001115581567735999 0.0
1.8301368814734107 -0.0009201352506632304 0.0
1.8493976674232158 -0.0007400789830289277 0.0
1.868597838104669 -0.0005766272228827414 0.0
1.8877371857569363 -0.00043099814669523613 0.0
1.9068155456061173 -0.00030441283219364467 0.0
1.925832791556987 -0.00019809453041404494 0.0
1.9447888315794961 -0.00011326803308147441 0.0
1.9636836027893807 -5.1159141440711095e-05 0.0
1.9825170662224272 -1.2994242668095116e-05 0.0

CELLS 100 300
2 0 2
2 2 3
2 3 4
2 4 5
2 5 6
2 6 7
2 7 8
2 8 9
2 9 10
2 10 11
2 11 12
2 12 13
2 13 14
2 14 15
2 15 16
2 16 17
2 17 18
2 18 19
2 19 20
2 20 21
2 21 22
2 22 23
2 23 24
2 24 25
2 25 26
2 26 27
2 27 28
2 28 29
2 29 30
2 30 31
2 31 32
2 32 33
2 33 34
2 34 35
2 35 36
2 36 37
2 37 38
2 38 39
2 39 40
2 40 41
2 41 42
2 42 43
2 43 44
2 44 45
2 45 46
2 46 47
2 47 48
2 48 49
2 49 50
2 50 51
2 51 52
2 52 53
2 53 54
2 54 55
2 55 56
2 56 57
2 57 58
2 58 59
2 59 60
2 60 61
2 61 62
2 62 63
2 63 64
2 64 65
2 65 66
2 66 67
2 67 68
2 68 69
2 69 70
2 70 71
2 71 72
2 72 73
2 73 74
2 74 75
2 75 76
2 76 77
2 77 78
2 78 79
2 79 80
2 80 81
2 81 82
2 82 83
2 83 84
2 84 85
2 85 86
2 86 87
2 87 88
2 88 89
2 89 90
2 90 91
2 91 92
2 92 93
2 93 94
2 94 95
2 95 96
2 96 97
2 97 98
2 98 99
2 99 100
2 100 1

CELL_TYPES 100
3
3
3
3
3
3
3
3
3
3
3
3
3
3
3
3
3
3
3
3
3
3
3
3
3
3
3
3
3
3
3
3
3
3
3
3
3
3
3
3
3
3
3
3
3
3
3
3
3
3
3
3
3
3
3
3
3
3
3
3
3
3
3
3
3
3
3
3
3
3
3
3
3
3
3
3
3
3
3
3
3
3
3
3
3
3
3
3
3
3
3
3
3
3
3
3
3
3
3
3

POINT_DATA 101
SCALARS MODE1_224.6674_Hz float 1
LOOKUP_TABLE default
0.009839986425673712
0.0
9.918014452165108e-05
0.00984773101890709
0.01923125756804173
0.028156174108346914
0.036625115811995256
0.04464086832169539
0.05220633260855651
0.05932455773785581
0.06599878065282873
0.07223246627140016
0.0780293466223999
0.08339345874816122
0.08832918136440242
0.09284127036454158
0.09693489330653715
0.1006156630591818
0.10388967082203092
0.10676351877379099
0.10924435264962322
0.11133989460088553
0.1130584767524032
0.11440907594405157
0.11540135022666352
0.11604567777848329
0.11635319901867187
0.11633586281913459
0.11600647785461882
0.11537877028068445
0.11446744908359988
0.11328828059331027
0.11185817376935527
0.1101952779246214
0.10831909448671845
0.10625060412339346
0.1040124099434102
0.10162889633141109
0.09912640100617362
0.09653339472872684
0.09388065825194664
0.09120143905313052
0.08853156063396117
0.08590944452592014
0.08337599020785517
0.08097424305393883
0.07874876974297165
0.07674466192433452
0.07500611259531875
0.07357456543914777
0.07248652832715774
0.07177125602346124
0.07144861109297548
0.0715274591665484
0.07200490559309085
0.07286653094130159
0.07408757674419197
0.07563484445809539
0.07746896438320575
0.0795466895133747
0.0818229486118914
0.08425250682316024
0.08679118850547873
0.0893966923627198
0.09202906909452234
0.09465094384422923
0.09722756034503739
0.09972671012242305
0.10211859462184507
0.10437565403648759
0.10647238523385957
0.10838516268797674
0.1100920703434043
0.1115727483279259
0.11280825586717523
0.11378095020178221
0.11447438043331021
0.1148731947905329
0.11496305964658836
0.11473058861955117
0.11416328018151412
0.11324946233889537
0.1119782431011355
0.11033946561003322
0.10832366694849166
0.10592203978109783
0.10312639609800055
0.09992913243800174
0.0963231960575093
0.09230205159027531
0.0878596478101663
0.08299038416712497
0.07768907681659518
0.0719509239068133
0.0657714699290416
0.05914656897777683
0.0520723468227977
0.04454516179784064
0.036561564791962646
0.028118259694848737
0.019212071430569036

