# vtk DataFile Version 2.0
mesh vtk view
ASCII
DATASET UNSTRUCTURED_GRID
POINTS 101 double
-0.001064992379960142 0.0 0.0
2.0 0.0 0.0
0.0199999999999621 1.0734374377114261e-05 0.0
0.0410649923798028 4.2261899447643726e-05 0.0
0.062079315574825135 9.35692447121451e-05 0.0
0.0830429762170271 0.0001636433077207014 0.0
0.10395599130445256 0.00025147147005383507 0.0
0.12481839302493578 0.0003560419472431772 0.0
0.14563023332635136 0.0004763442275634361 0.0
0.1663915882335207 0.0006113695946313537 0.0
0.18710256191205876 0.0007601117287539485 0.0
0.20776329047953623 0.0009215673819772682 0.0
0.22837394556446752 0.0010947371217988118 0.0
0.24893473761381946 0.001278626138522416 0.0
0.26944591894989867 0.001472245111253444 0.0
0.2899077865777054 0.0016746111275556452 0.0
0.31032068474396834 0.0018847486518178346 0.0
0.330685007249359 0.0021016905374110694 0.0
0.3510011995156405 0.002324479077754387 0.0
0.37126976040971094 0.00255216709144861 0.0
0.39149124382676526 0.0027838190366851518 0.0
0.4116662600350749 0.003018512150189513 0.0
0.431795476785163 0.0032553376060174546 0.0
0.4518796201864293 0.003493401689585783 0.0
0.47191947535456824 0.003731826982389477 0.0
0.491915886833416 0.003969753552932546 0.0
0.511869758795155 0.004206340149481534 0.0
0.5317820550231056 0.0044407653903382254 0.0
0.5516537986816306 0.004672228947421475 0.0
0.5714860718779747 0.0048999527190476365 0.0
0.591280015021163 0.005123181987904425 0.0
0.6110368259833713 0.005341186560324263 0.0
0.6307577590694798 0.005553261883080214 0.0
0.6504441238008031 0.005758730134050381 0.0
0.6700972835192743 0.005956941283224927 0.0
0.689718653818638 0.006147274120663645 0.0
0.7093097008094735 0.0063291372481511735 0.0
0.7288719392251347 0.006501970031441071 0.0
0.7484069303759425 0.006665243510129238 0.0
0.7679162799592113 0.006818461262351179 0.0
0.7874016357329219 0.0069611602216558995 0.0
0.8068646850610768 0.007092911443572351 0.0
0.826307152338985 0.00721332081955104 0.0
0.8457307963069199 0.0073220297361343 0.0
0.8651374072607788 0.007418715677382945 0.0
0.884528804168546 0.007503092768764839 0.0
0.9039068317015194 0.007574912260891279 0.0
0.9232733571894022 0.007633962951670764 0.0
0.9426302675084914 0.007680071545635217 0.0
0.9619794659123054 0.007713102949381861 0.0
0.9813228688140984 0.007732960502263466 0.0
1.0006624025308037 0.007739586141651015 0.0
1.019999999997953 0.007732960502284918 0.0
1.0393375974651191 0.007713102949424497 0.0
1.0586771311819003 0.007680071545698624 0.0
1.0780205340837834 0.007633962951754384 0.0
1.0973697324876812 0.007574912260994417 0.0
1.1167266428068474 0.007503092768886686 0.0
1.1360931682948021 0.0074187156775225764 0.0
1.1554711958278416 0.007322029736290686 0.0
1.174862592735668 0.007213320819723054 0.0
1.1942692036895823 0.007092911443758755 0.0
1.2136928476575686 0.006961160221855398 0.0
1.2331353149355238 0.006818461262562424 0.0
1.252598364263724 0.006665243510350814 0.0
1.272083720037477 0.006501970031671517 0.0
1.2915930696207862 0.006329137248389008 0.0
1.311128060771632 0.00614727412090736 0.0
1.330690299187331 0.005956941283472994 0.0
1.3502813461782044 0.005758730134301295 0.0
1.3699027164776065 0.005553261883332483 0.0
1.3895558761961162 0.0053411865605764355 0.0
1.4092422409274805 0.005123181988155069 0.0
1.4289631740136322 0.0048999527192953906 0.0
1.448719984975887 0.004672228947665054 0.0
1.4685139281191242 0.004440765390576426 0.0
1.4883462013155222 0.0042063401497132126 0.0
1.5082179449741044 0.003969753553156659 0.0
1.5281302412021172 0.0037318269826050673 0.0
1.5480841131639211 0.0034934016897920006 0.0
1.5680805246428398 0.0032553376062135295 0.0
1.5881203798110546 0.003018512150374796 0.0
1.608204523212402 0.0027838190368591 0.0
1.6283337399625755 0.0025521670916108016 0.0
1.6485087561709764 0.0023244790779044728 0.0
1.6687302395881265 0.0021016905375488204 0.0
1.6889988004822978 0.0018847486519431122 0.0
1.7093149927486835 0.0016746111276684298 0.0
1.729679315254185 0.0014722451113538424 0.0
1.7500922134205652 0.0012786261386107617 0.0
1.7705540810484923 0.0010947371218755272 0.0
1.7910652623846839 0.0009215673820427824 0.0
1.8116260544341414 0.0007601117288087558 0.0
1.8322367095191816 0.000611369594676071 0.0
1.8528974380867735 0.0004763442275987865 0.0
1.8736084117654304 0.0003560419472699778 0.0
1.894369766672725 0.0002514714700730109 0.0
1.9151816069742775 0.00016364330773334154 0.0
1.9360440086949104 9.356924471947889e-05 0.0
1.956957023782492 4.226189945102223e-05 0.0
1.9779206844248547 1.0734374377991623e-05 0.0

CELLS 100 300
2 0 2
2 2 3
2 3 4
2 4 5
2 5 6
2 6 7
2 7 8
2 8 9
2 9 10
2 10 11
2 11 12
2 12 13
2 13 14
2 14 15
2 15 16
2 16 17
2 17 18
2 18 19
2 19 20
2 20 21
2 21 22
2 22 23
2 23 24
2 24 25
2 25 26
2 26 27
2 27 28
2 28 29
2 29 30
2 30 31
2 31 32
2 32 33
2 33 34
2 34 35
2 35 36
2 36 37
2 37 38
2 38 39
2 39 40
2 40 41
2 41 42
2 42 43
2 43 44
2 44 45
2 45 46
2 46 47
2 47 48
2 48 49
2 49 50
2 50 51
2 51 52
2 52 53
2 53 54
2 54 55
2 55 56
2 56 57
2 57 58
2 58 59
2 59 60
2 60 61
2 61 62
2 62 63
2 63 64
2 64 65
2 65 66
2 66 67
2 67 68
2 68 69
2 69 70
2 70 71
2 71 72
2 72 73
2 73 74
2 74 75
2 75 76
2 76 77
2 77 78
2 78 79
2 79 80
2 80 81
2 81 82
2 82 83
2 83 84
2 84 85
2 85 86
2 86 87
2 87 88
2 88 89
2 89 90
2 90 91
2 91 92
2 92 93
2 93 94
2 94 95
2 95 96
2 96 97
2 97 98
2 98 99
2 99 100
2 100 1

CELL_TYPES 100
3
3
3
3
3
3
3
3
3
3
3
3
3
3
3
3
3
3
3
3
3
3
3
3
3
3
3
3
3
3
3
3
3
3
3
3
3
3
3
3
3
3
3
3
3
3
3
3
3
3
3
3
3
3
3
3
3
3
3
3
3
3
3
3
3
3
3
3
3
3
3
3
3
3
3
3
3
3
3
3
3
3
3
3
3
3
3
3
3
3
3
3
3
3
3
3
3
3
3
3

POINT_DATA 101
SCALARS MODE1_224.6674_Hz float 1
LOOKUP_TABLE default
0.009839986425673712
0.0
9.918014452165108e-05
0.00984773101890709
0.01923125756804173
0.028156174108346914
0.036625115811995256
0.04464086832169539
0.05220633260855651
0.05932455773785581
0.06599878065282873
0.07223246627140016
0.0780293466223999
0.08339345874816122
0.08832918136440242
0.09284127036454158
0.09693489330653715
0.1006156630591818
0.10388967082203092
0.10676351877379099
0.10924435264962322
0.11133989460088553
0.1130584767524032
0.11440907594405157
0.11540135022666352
0.11604567777848329
0.11635319901867187
0.11633586281913459
0.11600647785461882
0.11537877028068445
0.11446744908359988
0.11328828059331027
0.11185817376935527
0.1101952779246214
0.10831909448671845
0.10625060412339346
0.1040124099434102
0.10162889633141109
0.09912640100617362
0.09653339472872684
0.09388065825194664
0.09120143905313052
0.08853156063396117
0.08590944452592014
0.08337599020785517
0.08097424305393883
0.07874876974297165
0.07674466192433452
0.07500611259531875
0.07357456543914777
0.07248652832715774
0.07177125602346124
0.07144861109297548
0.0715274591665484
0.07200490559309085
0.07286653094130159
0.07408757674419197
0.07563484445809539
0.07746896438320575
0.0795466895133747
0.0818229486118914
0.08425250682316024
0.08679118850547873
0.0893966923627198
0.09202906909452234
0.09465094384422923
0.09722756034503739
0.09972671012242305
0.10211859462184507
0.10437565403648759
0.10647238523385957
0.10838516268797674
0.1100920703434043
0.1115727483279259
0.11280825586717523
0.11378095020178221
0.11447438043331021
0.1148731947905329
0.11496305964658836
0.11473058861955117
0.11416328018151412
0.11324946233889537
0.1119782431011355
0.11033946561003322
0.10832366694849166
0.10592203978109783
0.10312639609800055
0.09992913243800174
0.0963231960575093
0.09230205159027531
0.0878596478101663
0.08299038416712497
0.07768907681659518
0.0719509239068133
0.0657714699290416
0.05914656897777683
0.0520723468227977
0.04454516179784064
0.036561564791962646
0.028118259694848737
0.019212071430569036

