# vtk DataFile Version 2.0
mesh vtk view
ASCII
DATASET UNSTRUCTURED_GRID
POINTS 101 double
0.0010649923799601415 0.0 0.0
2.0 0.0 0.0
0.0199999999999621 -1.0734374377114256e-05 0.0
0.038935007620046265 -4.226189944764371e-05 0.0
0.0579206844249465 -9.356924471214506e-05 0.0
0.07695702378265952 -0.00016364330772070134 0.0
0.096044008695145 -0.00025147147005383496 0.0
0.11518160697457641 -0.0003560419472431771 0.0
0.13436976667308922 -0.00047634422756343594 0.0
0.1536084117658583 -0.0006113695946313533 0.0
0.17289743808725905 -0.0007601117287539482 0.0
0.19223670951972038 -0.0009215673819772677 0.0
0.21162605443472768 -0.0010947371217988114 0.0
0.23106526238531075 -0.0012786261385224155 0.0
0.25055408104914234 -0.0014722451112534434 0.0
0.27009221342122286 -0.0016746111275556445 0.0
0.28967931525484303 -0.0018847486518178338 0.0
0.3093149927493356 -0.0021016905374110686 0.0
0.32899880048293745 -0.0023244790777543862 0.0
0.34873023958875005 -0.0025521670914486093 0.0
0.3685087561715792 -0.002783819036685151 0.0
0.3883337399631527 -0.0030185121501895115 0.0
0.4082045232129478 -0.0032553376060174537 0.0
0.42812037981156487 -0.003493401689585782 0.0
0.44808052464330894 -0.003731826982389476 0.0
0.4680841131643446 -0.003969753552932544 0.0
0.4881302412024888 -0.0042063401494815324 0.0
0.5082179449744213 -0.004440765390338224 0.0
0.5283462013157796 -0.004672228947421473 0.0
0.5485139281193189 -0.004899952719047634 0.0
0.5687199849760138 -0.005123181987904423 0.0
0.5889631740136886 -0.0053411865603242605 0.0
0.6092422409274633 -0.005553261883080212 0.0
0.6295558761960233 -0.005758730134050379 0.0
0.6499027164774355 -0.005956941283224926 0.0
0.6702813461779551 -0.006147274120663643 0.0
0.6906902991870025 -0.006329137248151172 0.0
0.7111280607712246 -0.006501970031441069 0.0
0.7315930696203 -0.006665243510129235 0.0
0.7520837200369147 -0.006818461262351176 0.0
0.7725983642630874 -0.006961160221655897 0.0
0.7931353149348155 -0.0070929114435723485 0.0
0.8136928476567905 -0.007213320819551038 0.0
0.8342692036887388 -0.0073220297361342975 0.0
0.8548625927347634 -0.0074187156773829425 0.0
0.8754711958268795 -0.007503092768764837 0.0
0.8960931682937893 -0.007574912260891276 0.0
0.9167266428057895 -0.0076339629516707615 0.0
0.9373697324865835 -0.007680071545635214 0.0
0.958020534082653 -0.007713102949381858 0.0
0.9786771311807433 -0.007732960502263462 0.0
0.9993375974639647 -0.007739586141651013 0.0
1.019999999996877 -0.007732960502284916 0.0
1.040662402529817 -0.007713102949424494 0.0
1.0613228688131415 -0.007680071545698622 0.0
1.0819794659113622 -0.007633962951754381 0.0
1.1026302675075708 -0.007574912260994414 0.0
1.1232733571885107 -0.007503092768886684 0.0
1.1439068317006618 -0.007418715677522574 0.0
1.1645288041677284 -0.007322029736290684 0.0
1.185137407260006 -0.00721332081972305 0.0
1.2057307963061978 -0.007092911443758752 0.0
1.2263071523383173 -0.006961160221855395 0.0
1.2468646850604659 -0.006818461262562421 0.0
1.267401635732372 -0.0066652435103508115 0.0
1.2879162799587252 -0.006501970031671515 0.0
1.3084069303755217 -0.006329137248389005 0.0
1.3288719392247799 -0.006147274120907357 0.0
1.349309700809187 -0.005956941283472991 0.0
1.3697186538184194 -0.005758730134301293 0.0
1.3900972835191234 -0.005553261883332481 0.0
1.4104441238007177 -0.005341186560576434 0.0
1.4307577590694596 -0.0051231819881550665 0.0
1.4510368259834137 -0.004899952719295389 0.0
1.471280015021265 -0.004672228947665052 0.0
1.4914860718781318 -0.004440765390576425 0.0
1.51165379868184 -0.004206340149713211 0.0
1.5317820550233634 -0.003969753553156658 0.0
1.5518697587954569 -0.003731826982605066 0.0
1.5719158868337568 -0.0034934016897919993 0.0
1.5919194753549444 -0.0032553376062135282 0.0
1.6118796201868353 -0.0030185121503747948 0.0
1.631795476785594 -0.0027838190368590985 0.0
1.6516662600355245 -0.0025521670916108007 0.0
1.6714912438272298 -0.002324479077904472 0.0
1.6912697604101854 -0.0021016905375488195 0.0
1.7110011995161203 -0.0018847486519431114 0.0
1.7306850072498385 -0.0016746111276684291 0.0
1.7503206847444432 -0.001472245111353842 0.0
1.7699077865781687 -0.0012786261386107613 0.0
1.7894459189503478 -0.0010947371218755267 0.0
1.8089347376142602 -0.0009215673820427819 0.0
1.8283739455649088 -0.0007601117288087556 0.0
1.8477632904799743 -0.0006113695946760708 0.0
1.8671025619124886 -0.00047634422759878635 0.0
1.8863915882339357 -0.0003560419472699777 0.0
1.9056302333267467 -0.0002514714700730108 0.0
1.9248183930253004 -0.00016364330773334149 0.0
1.9439559913047737 -9.356924471947886e-05 0.0
1.963042976217296 -4.2261899451022215e-05 0.0
1.9820793155750391 -1.0734374377991618e-05 0.0

CELLS 100 300
2 0 2
2 2 3
2 3 4
2 4 5
2 5 6
2 6 7
2 7 8
2 8 9
2 9 10
2 10 11
2 11 12
2 12 13
2 13 14
2 14 15
2 15 16
2 16 17
2 17 18
2 18 19
2 19 20
2 20 21
2 21 22
2 22 23
2 23 24
2 24 25
2 25 26
2 26 27
2 27 28
2 28 29
2 29 30
2 30 31
2 31 32
2 32 33
2 33 34
2 34 35
2 35 36
2 36 37
2 37 38
2 38 39
2 39 40
2 40 41
2 41 42
2 42 43
2 43 44
2 44 45
2 45 46
2 46 47
2 47 48
2 48 49
2 49 50
2 50 51
2 51 52
2 52 53
2 53 54
2 54 55
2 55 56
2 56 57
2 57 58
2 58 59
2 59 60
2 60 61
2 61 62
2 62 63
2 63 64
2 64 65
2 65 66
2 66 67
2 67 68
2 68 69
2 69 70
2 70 71
2 71 72
2 72 73
2 73 74
2 74 75
2 75 76
2 76 77
2 77 78
2 78 79
2 79 80
2 80 81
2 81 82
2 82 83
2 83 84
2 84 85
2 85 86
2 86 87
2 87 88
2 88 89
2 89 90
2 90 91
2 91 92
2 92 93
2 93 94
2 94 95
2 95 96
2 96 97
2 97 98
2 98 99
2 99 100
2 100 1

CELL_TYPES 100
3
3
3
3
3
3
3
3
3
3
3
3
3
3
3
3
3
3
3
3
3
3
3
3
3
3
3
3
3
3
3
3
3
3
3
3
3
3
3
3
3
3
3
3
3
3
3
3
3
3
3
3
3
3
3
3
3
3
3
3
3
3
3
3
3
3
3
3
3
3
3
3
3
3
3
3
3
3
3
3
3
3
3
3
3
3
3
3
3
3
3
3
3
3
3
3
3
3
3
3

POINT_DATA 101
SCALARS MODE1_224.6674_Hz float 1
LOOKUP_TABLE default
0.009839986425673712
0.0
9.918014452165108e-05
0.00984773101890709
0.01923125756804173
0.028156174108346914
0.036625115811995256
0.04464086832169539
0.05220633260855651
0.05932455773785581
0.06599878065282873
0.07223246627140016
0.0780293466223999
0.08339345874816122
0.08832918136440242
0.09284127036454158
0.09693489330653715
0.1006156630591818
0.10388967082203092
0.10676351877379099
0.10924435264962322
0.11133989460088553
0.1130584767524032
0.11440907594405157
0.11540135022666352
0.11604567777848329
0.11635319901867187
0.11633586281913459
0.11600647785461882
0.11537877028068445
0.11446744908359988
0.11328828059331027
0.11185817376935527
0.1101952779246214
0.10831909448671845
0.10625060412339346
0.1040124099434102
0.10162889633141109
0.09912640100617362
0.09653339472872684
0.09388065825194664
0.09120143905313052
0.08853156063396117
0.08590944452592014
0.08337599020785517
0.08097424305393883
0.07874876974297165
0.07674466192433452
0.07500611259531875
0.07357456543914777
0.07248652832715774
0.07177125602346124
0.07144861109297548
0.0715274591665484
0.07200490559309085
0.07286653094130159
0.07408757674419197
0.07563484445809539
0.07746896438320575
0.0795466895133747
0.0818229486118914
0.08425250682316024
0.08679118850547873
0.0893966923627198
0.09202906909452234
0.09465094384422923
0.09722756034503739
0.09972671012242305
0.10211859462184507
0.10437565403648759
0.10647238523385957
0.10838516268797674
0.1100920703434043
0.1115727483279259
0.11280825586717523
0.11378095020178221
0.11447438043331021
0.1148731947905329
0.11496305964658836
0.11473058861955117
0.11416328018151412
0.11324946233889537
0.1119782431011355
0.11033946561003322
0.10832366694849166
0.10592203978109783
0.10312639609800055
0.09992913243800174
0.0963231960575093
0.09230205159027531
0.0878596478101663
0.08299038416712497
0.07768907681659518
0.0719509239068133
0.0657714699290416
0.05914656897777683
0.0520723468227977
0.04454516179784064
0.036561564791962646
0.028118259694848737
0.019212071430569036

