# vtk DataFile Version 2.0
mesh vtk view
ASCII
DATASET UNSTRUCTURED_GRID
POINTS 101 double
-0.000952887918911706 0.0 0.0
2.0 0.0 0.0
0.0199999999999621 9.604440232154865e-06 0.0
0.04095288791876298 3.7813278453154914e-05 0.0
0.061860440251147314 8.37198505319193e-05 0.0
0.08272266293100775 0.0001464176963816802 0.0
0.10353957116712058 0.00022500078899553662 0.0
0.12431119375912739 0.00031856384753336907 0.0
0.14503757718670598 0.00042620272992517963 0.0
0.1657187894720648 0.0005470149004596322 0.0
0.18635492381601668 0.0006800999678324802 0.0
0.20694610200796698 0.0008245602891375556 0.0
0.2274924776102707 0.0009795016352936736 0.0
0.24799423891758215 0.001144033913414793 0.0
0.26845161169196413 0.0013172719416478182 0.0
0.28886486167473263 0.001498336272023472 0.0
0.30923429687611964 0.0016863540568896414 0.0
0.32956026964409463 0.0018804599545256936 0.0
0.34984317851391933 0.002079797069569715 0.0
0.3700834698401867 0.0022835179239277035 0.0
0.3902816392133344 0.0024907854538761885 0.0
0.41043823266286844 0.0027007740291169324 0.0
0.4305538476497833 0.0029126704895945646 0.0
0.45062913385091014 0.003125675195945174 0.0
0.4706647937381862 0.003339003089506374 0.0
0.49066158295609646 0.003551884757887014 0.0
0.5106203105008041 0.0037635675021676887 0.0
0.5305418387047538 0.00397331640188157 0.0
0.5504270830307963 0.004180415374008688 0.0
0.5702770116801508 0.00438416822230578 0.0
0.5900926450187868 0.00458389967338817 0.0
0.6098750548270722 0.004778956396079603 0.0
0.6296253633777947 0.004968708000650718 0.0
0.6493447423479198 0.0051525480146766564 0.0
0.6690344115697039 0.005329894832359146 0.0
0.688695637627023 0.005500192634277997 0.0
0.7083297323030276 0.0056629122746615764 0.0
0.7279380508854553 0.005817552133394643 0.0
0.7475219903361718 0.005963638930115633 0.0
0.767082987331722 0.00610072849789316 0.0
0.786622516181878 0.006228406514113173 0.0
0.8061420866333788 0.006346289186354209 0.0
0.8256432415662379 0.006454023891177246 0.0
0.8451275545901735 0.006551289763909637 0.0
0.8645966275488832 0.0066377982376584245 0.0
0.8840520879400372 0.006713293529947487 0.0
0.9034955862590073 0.006777553075534301 0.0
0.9229287932744752 0.006830387904126473 0.0
0.9423533972441805 0.006871642961884142 0.0
0.9617711010791657 0.006901197375762717 0.0
0.9811836194649745 0.006918964659919942 0.0
1.0005926759483386 0.006924892863582487 0.0
1.0199999999978964 0.006918964659939137 0.0
1.0394073240474717 0.006901197375800866 0.0
1.058816380530913 0.006871642961940874 0.0
1.078228898916814 0.0068303879042012905 0.0
1.0976466027518859 0.0067775530756265835 0.0
1.117071206721672 0.006713293530056509 0.0
1.1365044137372158 0.0066377982377833575 0.0
1.1559479120562568 0.0065512897640495615 0.0
1.1754033724474753 0.006454023891331153 0.0
1.1948724454062463 0.006346289186520991 0.0
1.2143567584302395 0.0062284065142916714 0.0
1.2338579133631524 0.006100728498082168 0.0
1.2533774838147054 0.005963638930313886 0.0
1.2729170126649112 0.005817552133600831 0.0
1.2924780096605093 0.005662912274874374 0.0
1.3120619491112713 0.005500192634496058 0.0
1.3316702676937446 0.005329894832581099 0.0
1.3513043623697947 0.005152548014901159 0.0
1.37096558842716 0.004968708000876432 0.0
1.39065525764899 0.004778956396305232 0.0
1.4103746366191636 0.0045838996736124295 0.0
1.4301249451699365 0.004384168222527455 0.0
1.4499073549782753 0.004180415374226627 0.0
1.4697229883169667 0.003973316402094697 0.0
1.489572916966381 0.0037635675023749795 0.0
1.5094581612924867 0.003551884758087537 0.0
1.5293796894965035 0.0033390030896992707 0.0
1.5493384170412807 0.0031256751961296846 0.0
1.5693352062592663 0.0029126704897699997 0.0
1.589370866146622 0.002700774029282712 0.0
1.6094461523478332 0.002490785454031826 0.0
1.629561767334836 0.0022835179240728223 0.0
1.6497183607844632 0.0020797970697040017 0.0
1.6699165301577086 0.0018804599546489444 0.0
1.6901568214840779 0.0016863540570017318 0.0
1.7104397303540073 0.0014983362721243845 0.0
1.7307657031220933 0.0013172719417376484 0.0
1.751135138323597 0.0011440339134938394 0.0
1.7715483883064849 0.0009795016353623138 0.0
1.7920057610809772 0.0008245602891961736 0.0
1.8125075223883924 0.0006800999678815184 0.0
1.8330538979908022 0.0005470149004996425 0.0
1.853645076182864 0.00042620272995680896 0.0
1.8742812105269306 0.0003185638475573486 0.0
1.8949624228124105 0.000225000789012694 0.0
1.9156888062401207 0.0001464176963929898 0.0
1.9364604288322715 8.371985053848112e-05 0.0
1.9572773370685344 3.7813278456177785e-05 0.0
1.9781395597485485 9.604440232939873e-06 0.0

CELLS 100 300
2 0 2
2 2 3
2 3 4
2 4 5
2 5 6
2 6 7
2 7 8
2 8 9
2 9 10
2 10 11
2 11 12
2 12 13
2 13 14
2 14 15
2 15 16
2 16 17
2 17 18
2 18 19
2 19 20
2 20 21
2 21 22
2 22 23
2 23 24
2 24 25
2 25 26
2 26 27
2 27 28
2 28 29
2 29 30
2 30 31
2 31 32
2 32 33
2 33 34
2 34 35
2 35 36
2 36 37
2 37 38
2 38 39
2 39 40
2 40 41
2 41 42
2 42 43
2 43 44
2 44 45
2 45 46
2 46 47
2 47 48
2 48 49
2 49 50
2 50 51
2 51 52
2 52 53
2 53 54
2 54 55
2 55 56
2 56 57
2 57 58
2 58 59
2 59 60
2 60 61
2 61 62
2 62 63
2 63 64
2 64 65
2 65 66
2 66 67
2 67 68
2 68 69
2 69 70
2 70 71
2 71 72
2 72 73
2 73 74
2 74 75
2 75 76
2 76 77
2 77 78
2 78 79
2 79 80
2 80 81
2 81 82
2 82 83
2 83 84
2 84 85
2 85 86
2 86 87
2 87 88
2 88 89
2 89 90
2 90 91
2 91 92
2 92 93
2 93 94
2 94 95
2 95 96
2 96 97
2 97 98
2 98 99
2 99 100
2 100 1

CELL_TYPES 100
3
3
3
3
3
3
3
3
3
3
3
3
3
3
3
3
3
3
3
3
3
3
3
3
3
3
3
3
3
3
3
3
3
3
3
3
3
3
3
3
3
3
3
3
3
3
3
3
3
3
3
3
3
3
3
3
3
3
3
3
3
3
3
3
3
3
3
3
3
3
3
3
3
3
3
3
3
3
3
3
3
3
3
3
3
3
3
3
3
3
3
3
3
3
3
3
3
3
3
3

POINT_DATA 101
SCALARS MODE1_224.6674_Hz float 1
LOOKUP_TABLE default
0.009839986425673712
0.0
9.918014452165108e-05
0.00984773101890709
0.01923125756804173
0.028156174108346914
0.036625115811995256
0.04464086832169539
0.05220633260855651
0.05932455773785581
0.06599878065282873
0.07223246627140016
0.0780293466223999
0.08339345874816122
0.08832918136440242
0.09284127036454158
0.09693489330653715
0.1006156630591818
0.10388967082203092
0.10676351877379099
0.10924435264962322
0.11133989460088553
0.1130584767524032
0.11440907594405157
0.11540135022666352
0.11604567777848329
0.11635319901867187
0.11633586281913459
0.11600647785461882
0.11537877028068445
0.11446744908359988
0.11328828059331027
0.11185817376935527
0.1101952779246214
0.10831909448671845
0.10625060412339346
0.1040124099434102
0.10162889633141109
0.09912640100617362
0.09653339472872684
0.09388065825194664
0.09120143905313052
0.08853156063396117
0.08590944452592014
0.08337599020785517
0.08097424305393883
0.07874876974297165
0.07674466192433452
0.07500611259531875
0.07357456543914777
0.07248652832715774
0.07177125602346124
0.07144861109297548
0.0715274591665484
0.07200490559309085
0.07286653094130159
0.07408757674419197
0.07563484445809539
0.07746896438320575
0.0795466895133747
0.0818229486118914
0.08425250682316024
0.08679118850547873
0.0893966923627198
0.09202906909452234
0.09465094384422923
0.09722756034503739
0.09972671012242305
0.10211859462184507
0.10437565403648759
0.10647238523385957
0.10838516268797674
0.1100920703434043
0.1115727483279259
0.11280825586717523
0.11378095020178221
0.11447438043331021
0.1148731947905329
0.11496305964658836
0.11473058861955117
0.11416328018151412
0.11324946233889537
0.1119782431011355
0.11033946561003322
0.10832366694849166
0.10592203978109783
0.10312639609800055
0.09992913243800174
0.0963231960575093
0.09230205159027531
0.0878596478101663
0.08299038416712497
0.07768907681659518
0.0719509239068133
0.0657714699290416
0.05914656897777683
0.0520723468227977
0.04454516179784064
0.036561564791962646
0.028118259694848737
0.019212071430569036

