# vtk DataFile Version 2.0
mesh vtk view
ASCII
DATASET UNSTRUCTURED_GRID
POINTS 101 double
-0.0024835111216852937 0.0 0.0
2.0 0.0 0.0
0.0199999999999621 -2.517372358859519e-05 0.0
0.03751648887825497 -9.798611236498989e-05 0.0
0.05523612449535772 -0.0002143751727315524 0.0
0.07315878974052678 -0.00037028291427076087 0.0
0.09128418759428561 -0.0005616597509218303 0.0
0.10961176211437239 -0.0007844704053179162 0.0
0.12814062713103155 -0.0010347011622941302 0.0
0.14686950263006757 -0.0013083683181289816 0.0
0.16579665878957411 -0.0016015276729099076 0.0
0.18491986762128634 -0.0019102849145613931 0.0
0.2042363621504413 -0.0022308067445821673 0.0
0.22374280304915894 -0.0025593325974405767 0.0
0.2434352526178857 -0.002892186807901399 0.0
0.2633091559877475 -0.0032257910833272557 0.0
0.2833593293938824 -0.003556677141227651 0.0
0.30357995534642573 -0.0038814993760340525 0.0
0.32396458450201254 -0.004197047423264631 0.0
0.3445061440144739 -0.004500258493906671 0.0
0.36519695211950826 -0.004788229356987175 0.0
0.38602873868441917 -0.005058227853913437 0.0
0.40699267143081597 -0.005307703834231276 0.0
0.4280793875159364 -0.0055342994089514685 0.0
0.44927903013683007 -0.00573585842451345 0.0
0.47058128980152303 -0.005910435067763227 0.0
0.4919754498925103 -0.006056301519989899 0.0
0.5134504361307497 -0.006171954586059647 0.0
0.5349948695328516 -0.006256121232970937 0.0
0.5565971224405899 -0.006307762980691507 0.0
0.5782453771902858 -0.0063260790968846575 0.0
0.5999276869801746 -0.006310508556046134 0.0
0.6216320384866496 -0.006260730732607884 0.0
0.6433464157753791 -0.006176664806674272 0.0
0.6650588650507726 -0.00605846787019189 0.0
0.6867575597871757 -0.005906531730466891 0.0
0.7084308657875383 -0.0057214784169846685 0.0
0.7300674057201458 -0.0055041544064059434 0.0
0.751656122691303 -0.005255623589361746 0.0
0.773186342421644 -0.004977159011198781 0.0
0.7946478336058999 -0.004670233427088275 0.0
0.816030866050514 -0.004336508719859156 0.0
0.8373262662003156 -0.003977824236505342 0.0
0.8585254696845144 -0.003596184106503447 0.0
0.8796205705334325 -0.003193743611820842 0.0
0.9006043667405327 -0.002772794684755372 0.0
0.9214704018693294 -0.002335750615491793 0.0
0.9422130024315095 -0.0018851300564525224 0.0
0.9628273107909338 -0.0014235404151315687 0.0
0.983309313377929 -0.0009536607311043431 0.0
1.00365586402929 -0.0004782241362784658 0.0
1.0238647023015033 -1.7211677694522672e-13 0.0
1.0439344666376018 0.00047822413593655836 0.0
1.0638647023016585 0.0009536607307672053 0.0
1.0836558640295304 0.0014235404148005162 0.0
1.1033093133782292 0.0018851300561287785 0.0
1.1228273107912914 0.0023357506151765353 0.0
1.1422130024319206 0.0027727946844496596 0.0
1.1614704018697894 0.0031937436115256307 0.0
1.1806043667410373 0.0035961841062195753 0.0
1.1996205705339749 0.003977824236233508 0.0
1.218525469685091 0.004336508719599988 0.0
1.2373262662009203 0.004670233426842244 0.0
1.2560308660511408 0.004977159010966238 0.0
1.2746478336065439 0.00525562358914295 0.0
1.2931863424222998 0.005504154406201021 0.0
1.3116561226919654 0.005721478416793626 0.0
1.3300674057208082 0.005906531730289604 0.0
1.3484308657881965 0.0060584678700281586 0.0
1.366757559787824 0.0061766648065237914 0.0
1.3850588650514082 0.006260730732470274 0.0
1.4033464157759967 0.006310508555920928 0.0
1.421632038487247 0.006326079096771338 0.0
1.439927686980748 0.006307762980589502 0.0
1.458245377190834 0.006256121232879646 0.0
1.47659712244111 0.006171954585978449 0.0
1.4949948695333442 0.0060563015199181485 0.0
1.5134504361312127 0.005910435067700262 0.0
1.531975449892943 0.005735858424458615 0.0
1.5505812898019236 0.005534299408904101 0.0
1.5692790301371997 0.005307703834190709 0.0
1.588079387516275 0.005058227853879052 0.0
1.6069926714311247 0.0047882293569583645 0.0
1.626028738684697 0.004500258493882857 0.0
1.6451969521197563 0.004197047423245228 0.0
1.6645061440146924 0.003881499376018549 0.0
1.6839645845022055 0.0035566771412155677 0.0
1.7035799553465891 0.0032257910833180864 0.0
1.7233593293940153 0.0028921868078946723 0.0
1.7433091559878526 0.0025593325974360486 0.0
1.7634352526179655 0.0022308067445796216 0.0
1.7837428030492244 0.00191028491456048 0.0
1.804236362150506 0.0016015276729102355 0.0
1.8249198676213523 0.001308368318130203 0.0
1.8457966587896417 0.001034701162295914 0.0
1.8668695026301367 0.0007844704053199297 0.0
1.8881406271311043 0.000561659750923754 0.0
1.9096117621144457 0.0003702829142724032 0.0
1.9312841875943538 0.00021437517273280266 0.0
1.953158789740588 9.7986112365784e-05 0.0
1.9752361244954155 2.5173723588868996e-05 0.0

CELLS 100 300
2 0 2
2 2 3
2 3 4
2 4 5
2 5 6
2 6 7
2 7 8
2 8 9
2 9 10
2 10 11
2 11 12
2 12 13
2 13 14
2 14 15
2 15 16
2 16 17
2 17 18
2 18 19
2 19 20
2 20 21
2 21 22
2 22 23
2 23 24
2 24 25
2 25 26
2 26 27
2 27 28
2 28 29
2 29 30
2 30 31
2 31 32
2 32 33
2 33 34
2 34 35
2 35 36
2 36 37
2 37 38
2 38 39
2 39 40
2 40 41
2 41 42
2 42 43
2 43 44
2 44 45
2 45 46
2 46 47
2 47 48
2 48 49
2 49 50
2 50 51
2 51 52
2 52 53
2 53 54
2 54 55
2 55 56
2 56 57
2 57 58
2 58 59
2 59 60
2 60 61
2 61 62
2 62 63
2 63 64
2 64 65
2 65 66
2 66 67
2 67 68
2 68 69
2 69 70
2 70 71
2 71 72
2 72 73
2 73 74
2 74 75
2 75 76
2 76 77
2 77 78
2 78 79
2 79 80
2 80 81
2 81 82
2 82 83
2 83 84
2 84 85
2 85 86
2 86 87
2 87 88
2 88 89
2 89 90
2 90 91
2 91 92
2 92 93
2 93 94
2 94 95
2 95 96
2 96 97
2 97 98
2 98 99
2 99 100
2 100 1

CELL_TYPES 100
3
3
3
3
3
3
3
3
3
3
3
3
3
3
3
3
3
3
3
3
3
3
3
3
3
3
3
3
3
3
3
3
3
3
3
3
3
3
3
3
3
3
3
3
3
3
3
3
3
3
3
3
3
3
3
3
3
3
3
3
3
3
3
3
3
3
3
3
3
3
3
3
3
3
3
3
3
3
3
3
3
3
3
3
3
3
3
3
3
3
3
3
3
3
3
3
3
3
3
3

POINT_DATA 101
SCALARS MODE2_619.3044_Hz float 1
LOOKUP_TABLE default
0.026678326394251408
0.0
0.00027042069938445454
0.02669908300799135
0.05122620198059031
0.0735970870188794
0.09382103666871622
0.11191006164386384
0.12787948854937414
0.1417486829959544
0.15354173192876894
0.16328807272747556
0.17102307352285254
0.17678857506277895
0.18063340979499545
0.18261392092327147
0.18279451462093704
0.18124829451167088
0.1780578524601362
0.17331632962096333
0.16712892693404371
0.1596151531053246
0.1509122830652464
0.1411808183798074
0.1306132909667855
0.1194486805475529
0.10799616053170648
0.09667354918822064
0.08606517552255694
0.07699038186627889
0.07052139906996296
0.06779307673419194
0.06950141315773865
0.07546310527554023
0.08478647049388952
0.09641173806823972
0.10945160536275443
0.1232537727216953
0.13735162014846516
0.1514044560584662
0.16515386844508056
0.1783958959139839
0.19096401355272147
0.20271881058131203
0.21354169713991591
0.22333103645467836
0.23199975169910905
0.23947384093247262
0.24569145754368366
0.25060234552465505
0.2541674979512153
0.2563589555978693
0.2571596933929035
0.2565635628299333
0.254575272935649
0.25121040379506954
0.24649545700115244
0.2404679585089744
0.23317664320750914
0.22468176974532517
0.2150556428734326
0.20438346558902168
0.1927647163133764
0.18031536755703845
0.16717146778711814
0.15349495947737
0.13948320450629575
0.12538466713938304
0.11152460413667803
0.09834571135527329
0.08646546035876494
0.07673032312148696
0.07018092003459094
0.06776358520223785
0.06979752698318221
0.07570959356789336
0.08439972464774602
0.09476895026187446
0.10595814165819621
0.11735092830459838
0.1285076113813851
0.13910468075092958
0.14889365925404777
0.1576754861769326
0.16528493749393947
0.17158112105141782
0.17644159358225697
0.17975864487126475
0.18143689083567074
0.18139166359647785
0.17954788762880722
0.17583924915807303
0.17020753655746107
0.1626020725539293
0.1529791858672218
0.1413016869830732
0.1275383239097795
0.11166320132918309
0.09365515225077523
0.07349705764894668
0.05117512820321649

