# vtk DataFile Version 2.0
mesh vtk view
ASCII
DATASET UNSTRUCTURED_GRID
POINTS 101 double
-0.00084078345786327 0.0 0.0
2.0 0.0 0.0
0.0199999999999621 8.474506087195469e-06 0.0
0.040840783457723163 3.3364657458666096e-05 0.0
0.06164156492746949 7.387045635169349e-05 0.0
0.08240234964498841 0.00012919208504265898 0.0
0.1031231510297886 0.00019853010793723818 0.0
0.123803994493319 0.0002810857478235609 0.0
0.1444449210470606 0.0003760612322869232 0.0
0.16504599071060888 0.0004826602062879107 0.0
0.1856072857199746 0.0006000882069110119 0.0
0.20612891353639773 0.0007275531962978431 0.0
0.22661100965607386 0.0008642661487885355 0.0
0.24705374022134485 0.0010094416883071704 0.0
0.26745730443402954 0.0011622987720421925 0.0
0.2878219367717599 0.0013220614164912987 0.0
0.30814790900827094 0.0014879594619614481 0.0
0.32843553203883025 0.0016592293716403178 0.0
0.3486851575121981 0.0018351150613850422 0.0
0.3688971792706624 0.0020148687564067974 0.0
0.3890720345999036 0.002197751871067225 0.0
0.409210205290662 0.002383035908044352 0.0
0.4293122185144035 0.0025700033731716745 0.0
0.44937864751539097 0.0027579487023045653 0.0
0.4694101121218041 0.002946179196623271 0.0
0.48940727907877696 0.0031340159628414827 0.0
0.5093708622064532 0.0033207948548538424 0.0
0.529301622386402 0.0035058674134249147 0.0
0.549200367379962 0.0036886018005959013 0.0
0.5690679514823268 0.0038683837255639227 0.0
0.5889052750164104 0.004044617358871914 0.0
0.608713283670773 0.004216726231834944 0.0
0.6284929676861097 0.004384154118221221 0.0
0.6482453608950367 0.004546365895302932 0.0
0.6679715396201333 0.004702848381493364 0.0
0.6876726214354082 0.0048531111478923505 0.0
0.7073497637965819 0.0049966873011719785 0.0
0.7270041625457758 0.005133134235348213 0.0
0.7466370502964013 0.005262034350102029 0.0
0.7662496947042327 0.0053829957334351405 0.0
0.785843396630834 0.005495652806570446 0.0
0.8054194882056809 0.005599666929136066 0.0
0.8249793307934908 0.005694726962803452 0.0
0.8445243128734272 0.005780549791684973 0.0
0.8640558478369876 0.005856880797933904 0.0
0.8835753717115284 0.005923494291130135 0.0
0.9030843408164952 0.005980193890177324 0.0
0.9225842293595482 0.006026812856582181 0.0
0.9420765269798695 0.006063214378133066 0.0
0.9615627362460262 0.006089291802143574 0.0
0.9810443701158504 0.0061049688175764194 0.0
1.0005229493658734 0.006110199585513959 0.0
1.0199999999978397 0.006104968817593356 0.0
1.039477050629824 0.006089291802177234 0.0
1.0589556298799259 0.006063214378183124 0.0
1.0784372637498445 0.006026812856648197 0.0
1.0979234730160905 0.0059801938902587495 0.0
1.1174157706364962 0.005923494291226331 0.0
1.1369156591796294 0.005856880798044139 0.0
1.1564246282846717 0.005780549791808436 0.0
1.1759441521592824 0.005694726962939252 0.0
1.1954756871229104 0.005599666929283227 0.0
1.2150206692029106 0.005495652806727945 0.0
1.2345805117907809 0.0053829957336019125 0.0
1.2541566033656868 0.005262034350276957 0.0
1.2737503052923453 0.005133134235530145 0.0
1.2933629497002321 0.0049966873013597415 0.0
1.3129958374509108 0.004853111148084757 0.0
1.332650236200158 0.0047028483816892045 0.0
1.352327378561385 0.004546365895501022 0.0
1.3720284603767137 0.004384154118420381 0.0
1.3917546391018638 0.004216726232034028 0.0
1.4115070323108467 0.004044617359069791 0.0
1.4312867163262406 0.0038683837257595184 0.0
1.4510947249806636 0.0036886018007882 0.0
1.4709320485148092 0.0035058674136129683 0.0
1.49079963261724 0.0033207948550367464 0.0
1.5106983776108687 0.0031340159630184146 0.0
1.5306291377908896 0.002946179196793474 0.0
1.5505927209186405 0.0027579487024673686 0.0
1.5705898878756928 0.0025700033733264704 0.0
1.5906213524821893 0.002383035908190628 0.0
1.6106877814832643 0.002197751871204552 0.0
1.6307897947070964 0.002014868756534843 0.0
1.6509279653979503 0.001835115061503531 0.0
1.6711028207272907 0.0016592293717490685 0.0
1.691314842485858 0.0014879594620603516 0.0
1.7115644679593314 0.001322061416580339 0.0
1.7318520909900015 0.0011622987721214544 0.0
1.7521780632266288 0.0010094416883769171 0.0
1.7725426955644772 0.0008642661488491003 0.0
1.7929462597772707 0.0007275531963495649 0.0
1.8133889903426432 0.0006000882069542809 0.0
1.833871086462423 0.00048266020632321393 0.0
1.8543927142789542 0.0003760612323148314 0.0
1.874954009288431 0.0002810857478447193 0.0
1.8955550789520959 0.00019853010795237703 0.0
1.9161960055059641 0.00012919208505263803 0.0
1.9368768489696329 7.387045635748333e-05 0.0
1.9575976503545767 3.3364657461333335e-05 0.0
1.9783584350722425 8.474506087888123e-06 0.0

CELLS 100 300
2 0 2
2 2 3
2 3 4
2 4 5
2 5 6
2 6 7
2 7 8
2 8 9
2 9 10
2 10 11
2 11 12
2 12 13
2 13 14
2 14 15
2 15 16
2 16 17
2 17 18
2 18 19
2 19 20
2 20 21
2 21 22
2 22 23
2 23 24
2 24 25
2 25 26
2 26 27
2 27 28
2 28 29
2 29 30
2 30 31
2 31 32
2 32 33
2 33 34
2 34 35
2 35 36
2 36 37
2 37 38
2 38 39
2 39 40
2 40 41
2 41 42
2 42 43
2 43 44
2 44 45
2 45 46
2 46 47
2 47 48
2 48 49
2 49 50
2 50 51
2 51 52
2 52 53
2 53 54
2 54 55
2 55 56
2 56 57
2 57 58
2 58 59
2 59 60
2 60 61
2 61 62
2 62 63
2 63 64
2 64 65
2 65 66
2 66 67
2 67 68
2 68 69
2 69 70
2 70 71
2 71 72
2 72 73
2 73 74
2 74 75
2 75 76
2 76 77
2 77 78
2 78 79
2 79 80
2 80 81
2 81 82
2 82 83
2 83 84
2 84 85
2 85 86
2 86 87
2 87 88
2 88 89
2 89 90
2 90 91
2 91 92
2 92 93
2 93 94
2 94 95
2 95 96
2 96 97
2 97 98
2 98 99
2 99 100
2 100 1

CELL_TYPES 100
3
3
3
3
3
3
3
3
3
3
3
3
3
3
3
3
3
3
3
3
3
3
3
3
3
3
3
3
3
3
3
3
3
3
3
3
3
3
3
3
3
3
3
3
3
3
3
3
3
3
3
3
3
3
3
3
3
3
3
3
3
3
3
3
3
3
3
3
3
3
3
3
3
3
3
3
3
3
3
3
3
3
3
3
3
3
3
3
3
3
3
3
3
3
3
3
3
3
3
3

POINT_DATA 101
SCALARS MODE1_224.6674_Hz float 1
LOOKUP_TABLE default
0.009839986425673712
0.0
9.918014452165108e-05
0.00984773101890709
0.01923125756804173
0.028156174108346914
0.036625115811995256
0.04464086832169539
0.05220633260855651
0.05932455773785581
0.06599878065282873
0.07223246627140016
0.0780293466223999
0.08339345874816122
0.08832918136440242
0.09284127036454158
0.09693489330653715
0.1006156630591818
0.10388967082203092
0.10676351877379099
0.10924435264962322
0.11133989460088553
0.1130584767524032
0.11440907594405157
0.11540135022666352
0.11604567777848329
0.11635319901867187
0.11633586281913459
0.11600647785461882
0.11537877028068445
0.11446744908359988
0.11328828059331027
0.11185817376935527
0.1101952779246214
0.10831909448671845
0.10625060412339346
0.1040124099434102
0.10162889633141109
0.09912640100617362
0.09653339472872684
0.09388065825194664
0.09120143905313052
0.08853156063396117
0.08590944452592014
0.08337599020785517
0.08097424305393883
0.07874876974297165
0.07674466192433452
0.07500611259531875
0.07357456543914777
0.07248652832715774
0.07177125602346124
0.07144861109297548
0.0715274591665484
0.07200490559309085
0.07286653094130159
0.07408757674419197
0.07563484445809539
0.07746896438320575
0.0795466895133747
0.0818229486118914
0.08425250682316024
0.08679118850547873
0.0893966923627198
0.09202906909452234
0.09465094384422923
0.09722756034503739
0.09972671012242305
0.10211859462184507
0.10437565403648759
0.10647238523385957
0.10838516268797674
0.1100920703434043
0.1115727483279259
0.11280825586717523
0.11378095020178221
0.11447438043331021
0.1148731947905329
0.11496305964658836
0.11473058861955117
0.11416328018151412
0.11324946233889537
0.1119782431011355
0.11033946561003322
0.10832366694849166
0.10592203978109783
0.10312639609800055
0.09992913243800174
0.0963231960575093
0.09230205159027531
0.0878596478101663
0.08299038416712497
0.07768907681659518
0.0719509239068133
0.0657714699290416
0.05914656897777683
0.0520723468227977
0.04454516179784064
0.036561564791962646
0.028118259694848737
0.019212071430569036

