# vtk DataFile Version 2.0
mesh vtk view
ASCII
DATASET UNSTRUCTURED_GRID
POINTS 101 double
0.004612234940272691 0.0 0.0
2.0 0.0 0.0
0.0199999999999621 4.6751200950248236e-05 0.0
0.044612234940168013 0.00018197420867783847 0.0
0.06884719736543801 0.00039812532078716895 0.0
0.09270510476714543 0.0006876682693599848 0.0
0.11618650875289468 0.0010430823945691138 0.0
0.13929244178689726 0.0014568736098761307 0.0
0.1620245496129994 0.001921587872831957 0.0
0.18438520940041594 0.002429826876525253 0.0
0.20637763367553066 0.0029742656782612586 0.0
0.22800596013083485 0.0035476719841854463 0.0
0.24927532743374503 0.004142926811366884 0.0
0.2701919371931765 0.004753046252389644 0.0
0.2907631022796994 0.005371204071816887 0.0
0.3109972817355093 0.005990754869036335 0.0
0.33090410255252034 0.006605257547994212 0.0
0.35049436864048744 0.007208498841206101 0.0
0.36978005735137376 0.007794516643205747 0.0
0.38877430397092133 0.00835762291725525 0.0
0.4074913746328339 0.008892425948690472 0.0
0.42594662815497525 0.009393851728696388 0.0
0.44415646734007147 0.009857164263572374 0.0
0.46213828032468124 0.010277984616624162 0.0
0.47991037259999725 0.010652308502667842 0.0
0.49749189036540103 0.01097652226870314 0.0
0.5149027359105435 0.011247417108552676 0.0
0.5321634757536461 0.011462201374110779 0.0
0.549295242292433 0.011618510861231746 0.0
0.5663196297493239 0.011714416964141376 0.0
0.5832585852140076 0.011748432608500083 0.0
0.600134295604047 0.011719515889799968 0.0
0.6169690713775694 0.011627071360557505 0.0
0.6337852278411906 0.011470948926680796 0.0
0.6506049649010077 0.011251440330356372 0.0
0.6674502461046639 0.010969273213724233 0.0
0.6843426778181089 0.010625602774400103 0.0
0.701303389371671 0.010222001040468186 0.0
0.718352914996498 0.009760443808814677 0.0
0.7355110783542698 0.009243295306512026 0.0
0.752796880440485 0.008673290650306802 0.0
0.7702283916146058 0.008053516194024151 0.0
0.7878226484790932 0.007387387867795639 0.0
0.8055955562939858 0.006678627626363547 0.0
0.8235617975744001 0.00593123813623871 0.0
0.8417347474753327 0.005149475843117122 0.0
0.8601263965216864 0.004337822571627618 0.0
0.8787472811917563 0.0035009558191261146 0.0
0.8976064228098015 0.0026437179138157716 0.0
0.9167112751480723 0.0017710842149080668 0.0
0.9360676810810922 0.0008881305388028655 0.0
0.9556798385754486 3.1964544289827837e-13 0.0
0.975550276237068 -0.0008881305381678945 0.0
0.9956798385754001 -0.0017710842142819535 0.0
1.016067681080932 -0.00264371791320096 0.0
1.0367112751477825 -0.0035009558185248764 0.0
1.0576064228093902 -0.00433782257104214 0.0
1.0787472811912306 -0.005149475842549371 0.0
1.1001263965210537 -0.00593123813569046 0.0
1.1217347474746022 -0.006678627625836357 0.0
1.1435617975735808 -0.007387387867290804 0.0
1.1655955562930886 -0.00805351619354284 0.0
1.1878226484781276 -0.008673290649849886 0.0
1.2102283916135814 -0.009243295306080162 0.0
1.2327968804394127 -0.009760443808408339 0.0
1.2555110783531604 -0.010222001040087615 0.0
1.2783529149953612 -0.01062560277404531 0.0
1.3013033893705162 -0.010969273213394986 0.0
1.3243426778169467 -0.0112514403300523 0.0
1.3474502461035034 -0.011470948926401334 0.0
1.3706049648998562 -0.011627071360301944 0.0
1.3937852278400544 -0.011719515889567444 0.0
1.4169690713764558 -0.011748432608289635 0.0
1.440134295602962 -0.011714416963951937 0.0
1.463258585212954 -0.011618510861062206 0.0
1.486319629748304 -0.011462201373959983 0.0
1.5092952422914496 -0.011247417108419425 0.0
1.5321634757527018 -0.010976522268586206 0.0
1.5549027359096403 -0.010652308502566005 0.0
1.5774918903645392 -0.010277984616536192 0.0
1.5999103725991777 -0.009857164263497037 0.0
1.6221382803239033 -0.00939385172863253 0.0
1.6441564673393343 -0.008892425948636967 0.0
1.6659466281542772 -0.008357622917211024 0.0
1.6874913746321758 -0.007794516643169712 0.0
1.7087743039703027 -0.007208498841177309 0.0
1.7297800573507869 -0.006605257547971772 0.0
1.7504943686399375 -0.005990754869019306 0.0
1.7709041025520118 -0.005371204071804395 0.0
1.7909972817350364 -0.004753046252381235 0.0
1.8107631022792643 -0.004142926811362156 0.0
1.8301919371927888 -0.0035476719841837506 0.0
1.8492753274334177 -0.0029742656782618675 0.0
1.8680059601305685 -0.002429826876527521 0.0
1.8863776336753253 -0.0019215878728352698 0.0
1.904385209400269 -0.0014568736098798702 0.0
1.9220245496129087 -0.0010430823945726865 0.0
1.939292441786855 -0.0006876682693630348 0.0
1.9561865087528916 -0.0003981253207894909 0.0
1.9727051047671766 -0.00018197420867931323 0.0
1.988847197365505 -4.675120095075673e-05 0.0

CELLS 100 300
2 0 2
2 2 3
2 3 4
2 4 5
2 5 6
2 6 7
2 7 8
2 8 9
2 9 10
2 10 11
2 11 12
2 12 13
2 13 14
2 14 15
2 15 16
2 16 17
2 17 18
2 18 19
2 19 20
2 20 21
2 21 22
2 22 23
2 23 24
2 24 25
2 25 26
2 26 27
2 27 28
2 28 29
2 29 30
2 30 31
2 31 32
2 32 33
2 33 34
2 34 35
2 35 36
2 36 37
2 37 38
2 38 39
2 39 40
2 40 41
2 41 42
2 42 43
2 43 44
2 44 45
2 45 46
2 46 47
2 47 48
2 48 49
2 49 50
2 50 51
2 51 52
2 52 53
2 53 54
2 54 55
2 55 56
2 56 57
2 57 58
2 58 59
2 59 60
2 60 61
2 61 62
2 62 63
2 63 64
2 64 65
2 65 66
2 66 67
2 67 68
2 68 69
2 69 70
2 70 71
2 71 72
2 72 73
2 73 74
2 74 75
2 75 76
2 76 77
2 77 78
2 78 79
2 79 80
2 80 81
2 81 82
2 82 83
2 83 84
2 84 85
2 85 86
2 86 87
2 87 88
2 88 89
2 89 90
2 90 91
2 91 92
2 92 93
2 93 94
2 94 95
2 95 96
2 96 97
2 97 98
2 98 99
2 99 100
2 100 1

CELL_TYPES 100
3
3
3
3
3
3
3
3
3
3
3
3
3
3
3
3
3
3
3
3
3
3
3
3
3
3
3
3
3
3
3
3
3
3
3
3
3
3
3
3
3
3
3
3
3
3
3
3
3
3
3
3
3
3
3
3
3
3
3
3
3
3
3
3
3
3
3
3
3
3
3
3
3
3
3
3
3
3
3
3
3
3
3
3
3
3
3
3
3
3
3
3
3
3
3
3
3
3
3
3

POINT_DATA 101
SCALARS MODE2_619.3044_Hz float 1
LOOKUP_TABLE default
0.026678326394251408
0.0
0.00027042069938445454
0.02669908300799135
0.05122620198059031
0.0735970870188794
0.09382103666871622
0.11191006164386384
0.12787948854937414
0.1417486829959544
0.15354173192876894
0.16328807272747556
0.17102307352285254
0.17678857506277895
0.18063340979499545
0.18261392092327147
0.18279451462093704
0.18124829451167088
0.1780578524601362
0.17331632962096333
0.16712892693404371
0.1596151531053246
0.1509122830652464
0.1411808183798074
0.1306132909667855
0.1194486805475529
0.10799616053170648
0.09667354918822064
0.08606517552255694
0.07699038186627889
0.07052139906996296
0.06779307673419194
0.06950141315773865
0.07546310527554023
0.08478647049388952
0.09641173806823972
0.10945160536275443
0.1232537727216953
0.13735162014846516
0.1514044560584662
0.16515386844508056
0.1783958959139839
0.19096401355272147
0.20271881058131203
0.21354169713991591
0.22333103645467836
0.23199975169910905
0.23947384093247262
0.24569145754368366
0.25060234552465505
0.2541674979512153
0.2563589555978693
0.2571596933929035
0.2565635628299333
0.254575272935649
0.25121040379506954
0.24649545700115244
0.2404679585089744
0.23317664320750914
0.22468176974532517
0.2150556428734326
0.20438346558902168
0.1927647163133764
0.18031536755703845
0.16717146778711814
0.15349495947737
0.13948320450629575
0.12538466713938304
0.11152460413667803
0.09834571135527329
0.08646546035876494
0.07673032312148696
0.07018092003459094
0.06776358520223785
0.06979752698318221
0.07570959356789336
0.08439972464774602
0.09476895026187446
0.10595814165819621
0.11735092830459838
0.1285076113813851
0.13910468075092958
0.14889365925404777
0.1576754861769326
0.16528493749393947
0.17158112105141782
0.17644159358225697
0.17975864487126475
0.18143689083567074
0.18139166359647785
0.17954788762880722
0.17583924915807303
0.17020753655746107
0.1626020725539293
0.1529791858672218
0.1413016869830732
0.1275383239097795
0.11166320132918309
0.09365515225077523
0.07349705764894668
0.05117512820321649

