# vtk DataFile Version 2.0
mesh vtk view
ASCII
DATASET UNSTRUCTURED_GRID
POINTS 101 double
0.002483511121685296 0.0 0.0
2.0 0.0 0.0
0.0199999999999621 2.517372358859521e-05 0.0
0.042483511121594104 9.798611236498997e-05 0.0
0.06476387550441393 0.00021437517273155258 0.0
0.08684121025915983 0.0003702829142707612 0.0
0.10871581240531196 0.0005616597509218307 0.0
0.1303882378851398 0.0007844704053179168 0.0
0.15185937286840903 0.0010347011622941311 0.0
0.17313049736931144 0.0013083683181289829 0.0
0.1942033412097437 0.0016015276729099092 0.0
0.2150801323779703 0.0019102849145613949 0.0
0.23576363784875393 0.0022308067445821695 0.0
0.25625719694997123 0.002559332597440579 0.0
0.27656474738115533 0.0028921868079014017 0.0
0.29669084401118073 0.0032257910833272587 0.0
0.31664067060492895 0.003556677141227654 0.0
0.33642004465226893 0.003881499376034056 0.0
0.3560354154965654 0.004197047423264635 0.0
0.3754938559839871 0.004500258493906674 0.0
0.3948030478788362 0.004788229356987179 0.0
0.4139712613138084 0.005058227853913441 0.0
0.43300732856729485 0.00530770383423128 0.0
0.4519206124820578 0.005534299408951474 0.0
0.4707209698610471 0.005735858424513456 0.0
0.4894187101962376 0.005910435067763232 0.0
0.5080245501051335 0.0060563015199899045 0.0
0.5265495638667772 0.0061719545860596525 0.0
0.5450051304645586 0.006256121232970942 0.0
0.5634028775567037 0.006307762980691513 0.0
0.581754622806891 0.006326079096884663 0.0
0.6000723130168852 0.006310508556046139 0.0
0.6183679615102935 0.00626073073260789 0.0
0.6366535842214472 0.006176664806674277 0.0
0.6549411349459372 0.006058467870191895 0.0
0.6732424402094174 0.005906531730466897 0.0
0.6915691342089377 0.005721478416984674 0.0
0.7099325942762135 0.005504154406405948 0.0
0.7283438773049395 0.005255623589361751 0.0
0.746813657574482 0.004977159011198785 0.0
0.7653521663901094 0.004670233427088279 0.0
0.7839691339453783 0.00433650871985916 0.0
0.8026737337954599 0.003977824236505345 0.0
0.8214745303111444 0.0035961841065034503 0.0
0.8403794294621098 0.0031937436118208446 0.0
0.8593956332548927 0.0027727946847553742 0.0
0.8785295981259793 0.0023357506154917953 0.0
0.8977869975636822 0.0018851300564525241 0.0
0.9171726892041412 0.0014235404151315698 0.0
0.9366906866170293 0.000953660731104344 0.0
0.9563441359655516 0.00047822413627846623 0.0
0.976135297693265 1.7211677694522687e-13 0.0
0.9960655333572281 -0.00047822413593655874 0.0
1.0161352976932776 -0.0009536607307672061 0.0
1.0363441359655114 -0.0014235404148005176 0.0
1.0566906866169166 -0.0018851300561287803 0.0
1.0771726892039606 -0.0023357506151765375 0.0
1.0977869975634376 -0.002772794684449662 0.0
1.1185295981256744 -0.0031937436115256337 0.0
1.1393956332545327 -0.0035961841062195784 0.0
1.1603794294616991 -0.0039778242362335115 0.0
1.1814745303106893 -0.004336508719599992 0.0
1.2026737337949656 -0.004670233426842248 0.0
1.223969133944849 -0.004977159010966243 0.0
1.2453521663895522 -0.005255623589142954 0.0
1.2668136575739022 -0.005504154406201026 0.0
1.2883438773043425 -0.005721478416793631 0.0
1.3099325942756037 -0.00590653173028961 0.0
1.3315691342083216 -0.006058467870028164 0.0
1.3532424402087997 -0.0061766648065237975 0.0
1.3749411349453218 -0.00626073073247028 0.0
1.3966535842208372 -0.006310508555920934 0.0
1.4183679615096931 -0.0063260790967713445 0.0
1.4400723130162978 -0.006307762980589507 0.0
1.461754622806318 -0.006256121232879651 0.0
1.4834028775561459 -0.0061719545859784545 0.0
1.505005130464018 -0.006056301519918155 0.0
1.5265495638662552 -0.005910435067700268 0.0
1.548024550104631 -0.00573585842445862 0.0
1.5694187101957544 -0.005534299408904106 0.0
1.5907209698605844 -0.005307703834190714 0.0
1.6119206124816148 -0.005058227853879056 0.0
1.6330073285668714 -0.004788229356958369 0.0
1.653971261313403 -0.004500258493882862 0.0
1.67480304787845 -0.004197047423245232 0.0
1.6954938559836195 -0.0038814993760185523 0.0
1.7160354154962125 -0.003556677141215571 0.0
1.736420044651933 -0.0032257910833180894 0.0
1.756640670604613 -0.002892186807894675 0.0
1.7766908440108813 -0.002559332597436051 0.0
1.7965647473808748 -0.0022308067445796233 0.0
1.8162571969497197 -0.0019102849145604818 0.0
1.8357636378485442 -0.001601527672910237 0.0
1.8550801323778037 -0.0013083683181302041 0.0
1.8742033412096204 -0.0010347011622959148 0.0
1.8931304973692293 -0.0007844704053199304 0.0
1.9118593728683675 -0.0005616597509237544 0.0
1.9303882378851323 -0.00037028291427240354 0.0
1.9487158124053303 -0.00021437517273280285 0.0
1.9668412102592001 -9.798611236578408e-05 0.0
1.9847638755044783 -2.517372358886902e-05 0.0

CELLS 100 300
2 0 2
2 2 3
2 3 4
2 4 5
2 5 6
2 6 7
2 7 8
2 8 9
2 9 10
2 10 11
2 11 12
2 12 13
2 13 14
2 14 15
2 15 16
2 16 17
2 17 18
2 18 19
2 19 20
2 20 21
2 21 22
2 22 23
2 23 24
2 24 25
2 25 26
2 26 27
2 27 28
2 28 29
2 29 30
2 30 31
2 31 32
2 32 33
2 33 34
2 34 35
2 35 36
2 36 37
2 37 38
2 38 39
2 39 40
2 40 41
2 41 42
2 42 43
2 43 44
2 44 45
2 45 46
2 46 47
2 47 48
2 48 49
2 49 50
2 50 51
2 51 52
2 52 53
2 53 54
2 54 55
2 55 56
2 56 57
2 57 58
2 58 59
2 59 60
2 60 61
2 61 62
2 62 63
2 63 64
2 64 65
2 65 66
2 66 67
2 67 68
2 68 69
2 69 70
2 70 71
2 71 72
2 72 73
2 73 74
2 74 75
2 75 76
2 76 77
2 77 78
2 78 79
2 79 80
2 80 81
2 81 82
2 82 83
2 83 84
2 84 85
2 85 86
2 86 87
2 87 88
2 88 89
2 89 90
2 90 91
2 91 92
2 92 93
2 93 94
2 94 95
2 95 96
2 96 97
2 97 98
2 98 99
2 99 100
2 100 1

CELL_TYPES 100
3
3
3
3
3
3
3
3
3
3
3
3
3
3
3
3
3
3
3
3
3
3
3
3
3
3
3
3
3
3
3
3
3
3
3
3
3
3
3
3
3
3
3
3
3
3
3
3
3
3
3
3
3
3
3
3
3
3
3
3
3
3
3
3
3
3
3
3
3
3
3
3
3
3
3
3
3
3
3
3
3
3
3
3
3
3
3
3
3
3
3
3
3
3
3
3
3
3
3
3

POINT_DATA 101
SCALARS MODE2_619.3044_Hz float 1
LOOKUP_TABLE default
0.026678326394251408
0.0
0.00027042069938445454
0.02669908300799135
0.05122620198059031
0.0735970870188794
0.09382103666871622
0.11191006164386384
0.12787948854937414
0.1417486829959544
0.15354173192876894
0.16328807272747556
0.17102307352285254
0.17678857506277895
0.18063340979499545
0.18261392092327147
0.18279451462093704
0.18124829451167088
0.1780578524601362
0.17331632962096333
0.16712892693404371
0.1596151531053246
0.1509122830652464
0.1411808183798074
0.1306132909667855
0.1194486805475529
0.10799616053170648
0.09667354918822064
0.08606517552255694
0.07699038186627889
0.07052139906996296
0.06779307673419194
0.06950141315773865
0.07546310527554023
0.08478647049388952
0.09641173806823972
0.10945160536275443
0.1232537727216953
0.13735162014846516
0.1514044560584662
0.16515386844508056
0.1783958959139839
0.19096401355272147
0.20271881058131203
0.21354169713991591
0.22333103645467836
0.23199975169910905
0.23947384093247262
0.24569145754368366
0.25060234552465505
0.2541674979512153
0.2563589555978693
0.2571596933929035
0.2565635628299333
0.254575272935649
0.25121040379506954
0.24649545700115244
0.2404679585089744
0.23317664320750914
0.22468176974532517
0.2150556428734326
0.20438346558902168
0.1927647163133764
0.18031536755703845
0.16717146778711814
0.15349495947737
0.13948320450629575
0.12538466713938304
0.11152460413667803
0.09834571135527329
0.08646546035876494
0.07673032312148696
0.07018092003459094
0.06776358520223785
0.06979752698318221
0.07570959356789336
0.08439972464774602
0.09476895026187446
0.10595814165819621
0.11735092830459838
0.1285076113813851
0.13910468075092958
0.14889365925404777
0.1576754861769326
0.16528493749393947
0.17158112105141782
0.17644159358225697
0.17975864487126475
0.18143689083567074
0.18139166359647785
0.17954788762880722
0.17583924915807303
0.17020753655746107
0.1626020725539293
0.1529791858672218
0.1413016869830732
0.1275383239097795
0.11166320132918309
0.09365515225077523
0.07349705764894668
0.05117512820321649

