# vtk DataFile Version 2.0
mesh vtk view
ASCII
DATASET UNSTRUCTURED_GRID
POINTS 101 double
-0.005321809546468487 0.0 0.0
2.0 0.0 0.0
0.0199999999999621 -5.3943693404132556e-05 0.0
0.03467819045348975 -0.0002099702407821212 0.0
0.0497916953473256 -0.0004593753701390409 0.0
0.06534026372987932 -0.0007934633877230591 0.0
0.08132325913084197 -0.0012035566091182079 0.0
0.09773949024536244 -0.0016810080113955348 0.0
0.11458705813824444 -0.002217216776344565 0.0
0.13186321992192823 -0.002803646395990675 0.0
0.1495642688351915 -0.003431845013378374 0.0
0.16768543061746694 -0.004093467674060129 0.0
0.1862207760371198 -0.004780300166961788 0.0
0.20516314939155192 -0.005484284137372665 0.0
0.22450411275316023 -0.006197543159788713 0.0
0.24423390568864284 -0.006912409464272692 0.0
0.2643414201304273 -0.007621451016916396 0.0
0.28481419002880104 -0.008317498662930113 0.0
0.30563839536226806 -0.008993673049852782 0.0
0.32679888003189494 -0.009643411058371437 0.0
0.348279183114178 -0.010260491479258234 0.0
0.37006158289619673 -0.010839059686957366 0.0
0.39212715306711377 -0.011373651073352734 0.0
0.41445583039243844 -0.01185921301918172 0.0
0.4370264931515632 -0.012291125195385968 0.0
0.4598170495759718 -0.012665218002349772 0.0
0.482804535485297 -0.01297778897140693 0.0
0.5059652202815912 -0.013225616970127817 0.0
0.529274720429019 -0.013405974070652008 0.0
0.5527081195170962 -0.01351663495862466 0.0
0.576240093980797 -0.013555883779038554 0.0
0.5998450435306257 -0.013522518334384573 0.0
0.6234972253302817 -0.01341585156987404 0.0
0.6471708909490546 -0.013235710300016298 0.0
0.6708404251106785 -0.012982431150411193 0.0
0.6944804852601804 -0.01265685370814334 0.0
0.7180661409753102 -0.012260310893538576 0.0
0.7415730122595358 -0.011794616585155593 0.0
0.764977405769225 -0.011262050548632316 0.0
0.7882564480485936 -0.010665340738283102 0.0
0.8113882148720658 -0.010007643058046306 0.0
0.8343518558248774 -0.009292518685412478 0.0
0.8571277132888045 -0.008523909078225735 0.0
0.8796974350407257 -0.007706108799650244 0.0
0.9020440797170454 -0.006843736311044662 0.0
0.9241522144466128 -0.005941702895904369 0.0
0.9460080040083866 -0.0050051798903395575 0.0
0.9675992909274108 -0.004039564406683977 0.0
0.9889156659833866 -0.0030504437467105045 0.0
1.0099485286698717 -0.002043558709509307 0.0
1.0306911372085692 -0.0010247660063109983 0.0
1.0511386477919253 -3.688216648826287e-13 0.0
1.0712881427978154 0.0010247660055783395 0.0
1.0911386477921619 0.0020435587087868686 0.0
1.1106911372089698 0.0030504437460011067 0.0
1.1299485286704078 0.00403956440599024 0.0
1.1489156659840518 0.005005179889664005 0.0
1.1675992909281965 0.0059417028952492715 0.0
1.1860080040092837 0.006843736310412066 0.0
1.2041522144476113 0.007706108799041948 0.0
1.2220440797181327 0.008523909077643232 0.0
1.239697435041892 0.009292518684857119 0.0
1.2571277132900376 0.010007643057519095 0.0
1.2743518558261644 0.010665340737784797 0.0
1.2913882148733964 0.011262050548163465 0.0
1.3082564480499557 0.011794616584716476 0.0
1.3249774057706072 0.012260310893129199 0.0
1.341573012260925 0.01265685370776344 0.0
1.3580661409766963 0.01298243115006034 0.0
1.3744804852615524 0.01323571029969384 0.0
1.390840425112029 0.01341585156957916 0.0
1.4071708909503737 0.013522518334116275 0.0
1.4234972253315632 0.013555883778795727 0.0
1.4398450435318626 0.013516634958406076 0.0
1.4562400939819857 0.013405974070456387 0.0
1.4727081195182328 0.013225616969953821 0.0
1.489274720430102 0.012977788971253177 0.0
1.505965220282617 0.012665218002214849 0.0
1.522804535486264 0.012291125195268463 0.0
1.5398170495768773 0.011859213019080217 0.0
1.5570264931524087 0.011373651073265807 0.0
1.5744558303932237 0.010839059686883683 0.0
1.592127153067841 0.010260491479196497 0.0
1.6100615828968647 0.00964341105832041 0.0
1.6282791831147885 0.008993673049811204 0.0
1.6467988800324482 0.008317498662896891 0.0
1.665638395362773 0.007621451016890503 0.0
1.68481419002925 0.0069124094642530436 0.0
1.7043414201308167 0.006197543159774299 0.0
1.724233905688979 0.005484284137362962 0.0
1.7445041127534457 0.004780300166956332 0.0
1.7651631493917987 0.004093467674058172 0.0
1.7862207760373412 0.0034318450133790767 0.0
1.8076854306176657 0.0028036463959932923 0.0
1.8295642688353684 0.0022172167763483876 0.0
1.851863219922084 0.0016810080113998495 0.0
1.8745870581383826 0.00120355660912233 0.0
1.897739490245482 0.0007934633877265784 0.0
1.9213232591309388 0.00045937537014172005 0.0
1.9453402637299526 0.0002099702407838229 0.0
1.96979169534738 5.3943693404719285e-05 0.0

CELLS 100 300
2 0 2
2 2 3
2 3 4
2 4 5
2 5 6
2 6 7
2 7 8
2 8 9
2 9 10
2 10 11
2 11 12
2 12 13
2 13 14
2 14 15
2 15 16
2 16 17
2 17 18
2 18 19
2 19 20
2 20 21
2 21 22
2 22 23
2 23 24
2 24 25
2 25 26
2 26 27
2 27 28
2 28 29
2 29 30
2 30 31
2 31 32
2 32 33
2 33 34
2 34 35
2 35 36
2 36 37
2 37 38
2 38 39
2 39 40
2 40 41
2 41 42
2 42 43
2 43 44
2 44 45
2 45 46
2 46 47
2 47 48
2 48 49
2 49 50
2 50 51
2 51 52
2 52 53
2 53 54
2 54 55
2 55 56
2 56 57
2 57 58
2 58 59
2 59 60
2 60 61
2 61 62
2 62 63
2 63 64
2 64 65
2 65 66
2 66 67
2 67 68
2 68 69
2 69 70
2 70 71
2 71 72
2 72 73
2 73 74
2 74 75
2 75 76
2 76 77
2 77 78
2 78 79
2 79 80
2 80 81
2 81 82
2 82 83
2 83 84
2 84 85
2 85 86
2 86 87
2 87 88
2 88 89
2 89 90
2 90 91
2 91 92
2 92 93
2 93 94
2 94 95
2 95 96
2 96 97
2 97 98
2 98 99
2 99 100
2 100 1

CELL_TYPES 100
3
3
3
3
3
3
3
3
3
3
3
3
3
3
3
3
3
3
3
3
3
3
3
3
3
3
3
3
3
3
3
3
3
3
3
3
3
3
3
3
3
3
3
3
3
3
3
3
3
3
3
3
3
3
3
3
3
3
3
3
3
3
3
3
3
3
3
3
3
3
3
3
3
3
3
3
3
3
3
3
3
3
3
3
3
3
3
3
3
3
3
3
3
3
3
3
3
3
3
3

POINT_DATA 101
SCALARS MODE2_619.3044_Hz float 1
LOOKUP_TABLE default
0.026678326394251408
0.0
0.00027042069938445454
0.02669908300799135
0.05122620198059031
0.0735970870188794
0.09382103666871622
0.11191006164386384
0.12787948854937414
0.1417486829959544
0.15354173192876894
0.16328807272747556
0.17102307352285254
0.17678857506277895
0.18063340979499545
0.18261392092327147
0.18279451462093704
0.18124829451167088
0.1780578524601362
0.17331632962096333
0.16712892693404371
0.1596151531053246
0.1509122830652464
0.1411808183798074
0.1306132909667855
0.1194486805475529
0.10799616053170648
0.09667354918822064
0.08606517552255694
0.07699038186627889
0.07052139906996296
0.06779307673419194
0.06950141315773865
0.07546310527554023
0.08478647049388952
0.09641173806823972
0.10945160536275443
0.1232537727216953
0.13735162014846516
0.1514044560584662
0.16515386844508056
0.1783958959139839
0.19096401355272147
0.20271881058131203
0.21354169713991591
0.22333103645467836
0.23199975169910905
0.23947384093247262
0.24569145754368366
0.25060234552465505
0.2541674979512153
0.2563589555978693
0.2571596933929035
0.2565635628299333
0.254575272935649
0.25121040379506954
0.24649545700115244
0.2404679585089744
0.23317664320750914
0.22468176974532517
0.2150556428734326
0.20438346558902168
0.1927647163133764
0.18031536755703845
0.16717146778711814
0.15349495947737
0.13948320450629575
0.12538466713938304
0.11152460413667803
0.09834571135527329
0.08646546035876494
0.07673032312148696
0.07018092003459094
0.06776358520223785
0.06979752698318221
0.07570959356789336
0.08439972464774602
0.09476895026187446
0.10595814165819621
0.11735092830459838
0.1285076113813851
0.13910468075092958
0.14889365925404777
0.1576754861769326
0.16528493749393947
0.17158112105141782
0.17644159358225697
0.17975864487126475
0.18143689083567074
0.18139166359647785
0.17954788762880722
0.17583924915807303
0.17020753655746107
0.1626020725539293
0.1529791858672218
0.1413016869830732
0.1275383239097795
0.11166320132918309
0.09365515225077523
0.07349705764894668
0.05117512820321649

