# vtk DataFile Version 2.0
mesh vtk view
ASCII
DATASET UNSTRUCTURED_GRID
POINTS 101 double
-0.0002802611526210901 0.0 0.0
2.0 0.0 0.0
0.0199999999999621 2.8248353623984907e-06 0.0
0.040280261152524074 1.1121552486222037e-05 0.0
0.060547188309080374 2.4623485450564507e-05 0.0
0.08080078321489167 4.306402834755301e-05 0.0
0.10104105034312871 6.61767026457461e-05 0.0
0.12126799816427707 9.369524927452035e-05 0.0
0.14148164034883373 0.00012535374409564112 0.0
0.1616819969033293 0.00016088673542930364 0.0
0.18186909523976413 0.00020002940230367072 0.0
0.20204297117855144 0.00024251773209928116 0.0
0.2222036698850897 0.0002880887162628453 0.0
0.24235124674015834 0.00033648056276905695 0.0
0.26248576814435687 0.0003874329240140643 0.0
0.28260731225689606 0.0004406871388304331 0.0
0.3027159696690274 0.0004959864873204829 0.0
0.3228118440125083 0.0005530764572134395 0.0
0.34289505250359203 0.000611705020461681 0.0
0.36296572642304115 0.000671622918802266 0.0
0.38302401153274934 0.0007325839570224087 0.0
0.4030700684296299 0.000794345302681451 0.0
0.4231040728375048 0.0008566677910572252 0.0
0.44312621583779505 0.0009193162341015222 0.0
0.46313670403989377 0.0009820597322077575 0.0
0.4831357596921792 0.001044671987613828 0.0
0.503123620734699 0.0011069316182846147 0.0
0.523100540794643 0.0011686224711416387 0.0
0.5430667891257908 0.0012295339335319675 0.0
0.5630226504932068 0.0012894612418546416 0.0
0.5829684250045291 0.0013482057862906386 0.0
0.6029044278892777 0.0014055754106116487 0.0
0.6228309892276843 0.001461384706073741 0.0
0.642748453630621 0.0015154552984343113 0.0
0.6626571798722811 0.0015676161271644552 0.0
0.6825575404773337 0.0016177037159641175 0.0
0.7024499212643527 0.0016655624337239938 0.0
0.7223347208473784 0.0017110447451160718 0.0
0.7422123500975479 0.0017540114500340105 0.0
0.7620832315667863 0.0017943319111450476 0.0
0.7819477988756144 0.0018318842688568164 0.0
0.801806496067191 0.001866555643045356 0.0
0.8216597769297554 0.001898242320934485 0.0
0.8415081042896954 0.0019268499305616586 0.0
0.8613519492775099 0.001952293599311302 0.0
0.8811917905689847 0.0019744980970433793 0.0
0.9010281136039346 0.0019933979633924423 0.0
0.9208614097849133 0.002008937618860728 0.0
0.9406921756583149 0.0020210714593776893 0.0
0.9605209120803282 0.002029763934047859 0.0
0.9803481233702307 0.002034989605858807 0.0
1.0001743164535473 0.0020367331951713207 0.0
1.0199999999975566 0.002034989605864453 0.0
1.0398256835415867 0.0020297639340590787 0.0
1.0596518766249892 0.0020210714593943756 0.0
1.0794790879149967 0.0020089376188827334 0.0
1.0993078243371142 0.001993397963419584 0.0
1.1191385902106181 0.0019744980970754443 0.0
1.1389718863916978 0.001952293599348047 0.0
1.1588082094267473 0.001926849930602813 0.0
1.1786480507183188 0.0018982423209797515 0.0
1.1984918957062303 0.0018665556430944097 0.0
1.2183402230662654 0.0018318842689093158 0.0
1.2381935039289236 0.0017943319112006385 0.0
1.2580522011205943 0.00175401145009232 0.0
1.2779167684295158 0.0017110447451767156 0.0
1.2977876498988468 0.0016655624337865813 0.0
1.3176652791491075 0.001617703716028253 0.0
1.3375500787322254 0.0015676161272297356 0.0
1.3574424595193362 0.0015154552985003414 0.0
1.3773428201244813 0.0014613847061401277 0.0
1.3972515463662325 0.0014055754106780099 0.0
1.4171690107692623 0.0013482057863565976 0.0
1.437095572107762 0.00128946124191984 0.0
1.4570315749926053 0.0012295339335960673 0.0
1.4769773495040217 0.0011686224712043232 0.0
1.4969332108715339 0.0011069316183455827 0.0
1.516899459202779 0.0010446719876728054 0.0
1.5368763792628213 0.0009820597322644916 0.0
1.5568642403054396 0.0009193162341557899 0.0
1.5768632959578257 0.0008566677911088238 0.0
1.5968737841600265 0.0007943453027302097 0.0
1.6168959271604202 0.0007325839570681844 0.0
1.6369299315683987 0.000671622918844948 0.0
1.6569759884653854 0.0006117050205011773 0.0
1.6770342735752009 0.0005530764572496898 0.0
1.6971049474947586 0.0004959864873534507 0.0
1.7171881559859512 0.00044068713886011323 0.0
1.7372840303295431 0.00038743292404048497 0.0
1.7573926877417876 0.0003364805627923058 0.0
1.777514231854439 0.0002880887162830336 0.0
1.7976487532587382 0.00024251773211652174 0.0
1.8177963301138977 0.00020002940231809372 0.0
1.8379570288205263 0.00016088673544107138 0.0
1.8581309047594055 0.00012535374410494387 0.0
1.8783180030959323 9.369524928157314e-05 0.0
1.8985183596505226 6.617670265079237e-05 0.0
1.9187320018351808 4.306402835087937e-05 0.0
1.938958949656439 2.4623485452494455e-05 0.0
1.9591992167847883 1.1121552487111117e-05 0.0
1.9794528116907122 2.8248353626293753e-06 0.0

CELLS 100 300
2 0 2
2 2 3
2 3 4
2 4 5
2 5 6
2 6 7
2 7 8
2 8 9
2 9 10
2 10 11
2 11 12
2 12 13
2 13 14
2 14 15
2 15 16
2 16 17
2 17 18
2 18 19
2 19 20
2 20 21
2 21 22
2 22 23
2 23 24
2 24 25
2 25 26
2 26 27
2 27 28
2 28 29
2 29 30
2 30 31
2 31 32
2 32 33
2 33 34
2 34 35
2 35 36
2 36 37
2 37 38
2 38 39
2 39 40
2 40 41
2 41 42
2 42 43
2 43 44
2 44 45
2 45 46
2 46 47
2 47 48
2 48 49
2 49 50
2 50 51
2 51 52
2 52 53
2 53 54
2 54 55
2 55 56
2 56 57
2 57 58
2 58 59
2 59 60
2 60 61
2 61 62
2 62 63
2 63 64
2 64 65
2 65 66
2 66 67
2 67 68
2 68 69
2 69 70
2 70 71
2 71 72
2 72 73
2 73 74
2 74 75
2 75 76
2 76 77
2 77 78
2 78 79
2 79 80
2 80 81
2 81 82
2 82 83
2 83 84
2 84 85
2 85 86
2 86 87
2 87 88
2 88 89
2 89 90
2 90 91
2 91 92
2 92 93
2 93 94
2 94 95
2 95 96
2 96 97
2 97 98
2 98 99
2 99 100
2 100 1

CELL_TYPES 100
3
3
3
3
3
3
3
3
3
3
3
3
3
3
3
3
3
3
3
3
3
3
3
3
3
3
3
3
3
3
3
3
3
3
3
3
3
3
3
3
3
3
3
3
3
3
3
3
3
3
3
3
3
3
3
3
3
3
3
3
3
3
3
3
3
3
3
3
3
3
3
3
3
3
3
3
3
3
3
3
3
3
3
3
3
3
3
3
3
3
3
3
3
3
3
3
3
3
3
3

POINT_DATA 101
SCALARS MODE1_224.6674_Hz float 1
LOOKUP_TABLE default
0.009839986425673712
0.0
9.918014452165108e-05
0.00984773101890709
0.01923125756804173
0.028156174108346914
0.036625115811995256
0.04464086832169539
0.05220633260855651
0.05932455773785581
0.06599878065282873
0.07223246627140016
0.0780293466223999
0.08339345874816122
0.08832918136440242
0.09284127036454158
0.09693489330653715
0.1006156630591818
0.10388967082203092
0.10676351877379099
0.10924435264962322
0.11133989460088553
0.1130584767524032
0.11440907594405157
0.11540135022666352
0.11604567777848329
0.11635319901867187
0.11633586281913459
0.11600647785461882
0.11537877028068445
0.11446744908359988
0.11328828059331027
0.11185817376935527
0.1101952779246214
0.10831909448671845
0.10625060412339346
0.1040124099434102
0.10162889633141109
0.09912640100617362
0.09653339472872684
0.09388065825194664
0.09120143905313052
0.08853156063396117
0.08590944452592014
0.08337599020785517
0.08097424305393883
0.07874876974297165
0.07674466192433452
0.07500611259531875
0.07357456543914777
0.07248652832715774
0.07177125602346124
0.07144861109297548
0.0715274591665484
0.07200490559309085
0.07286653094130159
0.07408757674419197
0.07563484445809539
0.07746896438320575
0.0795466895133747
0.0818229486118914
0.08425250682316024
0.08679118850547873
0.0893966923627198
0.09202906909452234
0.09465094384422923
0.09722756034503739
0.09972671012242305
0.10211859462184507
0.10437565403648759
0.10647238523385957
0.10838516268797674
0.1100920703434043
0.1115727483279259
0.11280825586717523
0.11378095020178221
0.11447438043331021
0.1148731947905329
0.11496305964658836
0.11473058861955117
0.11416328018151412
0.11324946233889537
0.1119782431011355
0.11033946561003322
0.10832366694849166
0.10592203978109783
0.10312639609800055
0.09992913243800174
0.0963231960575093
0.09230205159027531
0.0878596478101663
0.08299038416712497
0.07768907681659518
0.0719509239068133
0.0657714699290416
0.05914656897777683
0.0520723468227977
0.04454516179784064
0.036561564791962646
0.028118259694848737
0.019212071430569036

