# vtk DataFile Version 2.0
mesh vtk view
ASCII
DATASET UNSTRUCTURED_GRID
POINTS 41 double
0.0 0.0 0.0
0.0020374736396093895 19.98564553747371 0.0
20.0 20.0 0.0
-0.0038661062311490303 0.9992822768727884 0.0
-0.014649435468757665 1.9985645537457504 0.0
-0.031127503529043424 2.9978468306176285 0.0
-0.05207782622823115 3.9971291074883952 0.0
-0.07627791938258226 4.996411384359162 0.0
-0.10250529880834278 5.995693661229929 0.0
-0.12953748032175885 6.994975938100695 0.0
-0.15615197973907852 7.9942582149715316 0.0
-0.18112631287664327 8.99354049184646 0.0
-0.20323799555057934 9.992822768721664 0.0
-0.22126454357710956 10.992105045596873 0.0
-0.23398347277246345 11.991387322472077 0.0
-0.24017229895286993 12.99066959934728 0.0
-0.23860853793455747 13.989951876222486 0.0
-0.22806970553375458 14.98923415309769 0.0
-0.20733331756668993 15.988516429972893 0.0
-0.17517688984959232 16.987798706848096 0.0
-0.13037793819869065 17.987080983723303 0.0
-0.07171397843021379 18.98636326059851 0.0
1.001935599956731 19.89718222024558 0.0
2.0018337262740267 19.800446451987924 0.0
3.0017318525902374 19.70257194777605 0.0
4.001629978905337 19.60970644772475 0.0
5.0015281052204354 19.527011716988326 0.0
6.001426231535534 19.458663545760817 0.0
7.001324357850633 19.407851749275896 0.0
8.001222484165801 19.376780167806864 0.0
9.001120610485064 19.366666666666667 0.0
10.001018736804603 19.37774313620805 0.0
11.000916863124147 19.409255491823203 0.0
12.000814989443686 19.459463673943933 0.0
13.000713115763224 19.52564164804166 0.0
14.000611242082764 19.604077404627414 0.0
15.000509368402303 19.690072959251847 0.0
16.00040749472184 19.777944352505223 0.0
17.00030562104138 19.86102165001742 0.0
18.00020374736092 19.93164894245794 0.0
19.00010187368046 19.98118434553589 0.0

CELLS 40 120
2 0 3
2 3 4
2 4 5
2 5 6
2 6 7
2 7 8
2 8 9
2 9 10
2 10 11
2 11 12
2 12 13
2 13 14
2 14 15
2 15 16
2 16 17
2 17 18
2 18 19
2 19 20
2 20 21
2 21 1
2 1 22
2 22 23
2 23 24
2 24 25
2 25 26
2 26 27
2 27 28
2 28 29
2 29 30
2 30 31
2 31 32
2 32 33
2 33 34
2 34 35
2 35 36
2 36 37
2 37 38
2 38 39
2 39 40
2 40 2

CELL_TYPES 40
3
3
3
3
3
3
3
3
3
3
3
3
3
3
3
3
3
3
3
3
3
3
3
3
3
3
3
3
3
3
3
3
3
3
3
3
3
3
3
3

POINT_DATA 41
SCALARS CellEntityIds float 1
LOOKUP_TABLE default
0.0
0.00017645487929356232
0.0
4.785715142055433e-05
0.00017914768875891231
0.0003797486067115248
0.0006347856701113123
0.0009293820859200112
0.001248661107407179
0.0015777464185265553
0.0019017623913919637
0.002205834423223718
0.0024750894589054976
0.0026946568567311974
0.0028496699025292553
0.0029252686238739754
0.0029066054262659497
0.002778857515316227
0.002527258025238122
0.0021371896925595265
0.0015945610713704167
0.0008884486393772768
0.0012515855062565824
0.0024288078019131794
0.003619967316199037
0.004750185003592792
0.005756625924258961
0.006588463457584184
0.0072068734663824335
0.007585032759148874
0.007708118565019143
0.0075733083218126095
0.00718977957967682
0.0065787099531831525
0.005773277095787221
0.004818658685420919
0.003772032415975909
0.002702575992067807
0.00169146712570729
0.0008318835341206268
0.00022900293827858285
