# vtk DataFile Version 2.0
mesh vtk view
ASCII
DATASET UNSTRUCTURED_GRID
POINTS 41 double
0.0 0.0 0.0
0.002895357277339657 19.979601553252117 0.0
20.0 20.0 0.0
-0.005493940433738092 0.9989800776617089 0.0
-0.020817618824024036 1.9979601553235915 0.0
-0.044233820804430106 2.9969402329843904 0.0
-0.07400533200853895 3.9959203106440784 0.0
-0.10839493806998524 4.994900388303766 0.0
-0.14566542462238175 5.993880465963454 0.0
-0.18407957729934143 6.9928605436231415 0.0
-0.22190018173447987 7.9918406212829 0.0
-0.25739002356154556 8.990820698946747 0.0
-0.288811888413981 9.989800776610872 0.0
-0.31442856192536606 10.988780854275 0.0
-0.33250282972928996 11.987760931939125 0.0
-0.34129747745934125 12.986741009603247 0.0
-0.3390752907491078 13.985721087267372 0.0
-0.32409905523217736 14.984701164931497 0.0
-0.2946315565421382 15.98368124259562 0.0
-0.24893558031257842 16.982661320259744 0.0
-0.1852739121770866 17.98164139792387 0.0
-0.10190933776925112 18.980621475587995 0.0
1.0027505894125748 19.853890523506877 0.0
2.002605821547984 19.716423905456523 0.0
3.002461053682308 19.577339083681753 0.0
4.002316285815521 19.44537232045096 0.0
5.002171517948733 19.327858755720257 0.0
6.002026750081946 19.230732407133797 0.0
7.001881982215158 19.15852617002364 0.0
8.00173721434844 19.114371817409754 0.0
9.001592446485816 19.1 0.0
10.00144767862347 19.115740246190384 0.0
11.001302910761126 19.160520962064552 0.0
12.00115814289878 19.23186943139401 0.0
13.00101337503643 19.325911815638147 0.0
14.000868607174084 19.43737315394422 0.0
15.000723839311737 19.55957736314736 0.0
16.000579071449387 19.684447237770577 0.0
17.00043430358704 19.802504450024756 0.0
18.000289535724693 19.902869549808653 0.0
19.000144767862345 19.9732619647089 0.0

CELLS 40 120
2 0 3
2 3 4
2 4 5
2 5 6
2 6 7
2 7 8
2 8 9
2 9 10
2 10 11
2 11 12
2 12 13
2 13 14
2 14 15
2 15 16
2 16 17
2 17 18
2 18 19
2 19 20
2 20 21
2 21 1
2 1 22
2 22 23
2 23 24
2 24 25
2 25 26
2 26 27
2 27 28
2 28 29
2 29 30
2 30 31
2 31 32
2 32 33
2 33 34
2 34 35
2 35 36
2 36 37
2 37 38
2 38 39
2 39 40
2 40 2

CELL_TYPES 40
3
3
3
3
3
3
3
3
3
3
3
3
3
3
3
3
3
3
3
3
3
3
3
3
3
3
3
3
3
3
3
3
3
3
3
3
3
3
3
3

POINT_DATA 41
SCALARS CellEntityIds float 1
LOOKUP_TABLE default
0.0
0.00017645487929356232
0.0
4.785715142055433e-05
0.00017914768875891231
0.0003797486067115248
0.0006347856701113123
0.0009293820859200112
0.001248661107407179
0.0015777464185265553
0.0019017623913919637
0.002205834423223718
0.0024750894589054976
0.0026946568567311974
0.0028496699025292553
0.0029252686238739754
0.0029066054262659497
0.002778857515316227
0.002527258025238122
0.0021371896925595265
0.0015945610713704167
0.0008884486393772768
0.0012515855062565824
0.0024288078019131794
0.003619967316199037
0.004750185003592792
0.005756625924258961
0.006588463457584184
0.0072068734663824335
0.007585032759148874
0.007708118565019143
0.0075733083218126095
0.00718977957967682
0.0065787099531831525
0.005773277095787221
0.004818658685420919
0.003772032415975909
0.002702575992067807
0.00169146712570729
0.0008318835341206268
0.00022900293827858285
