# vtk DataFile Version 2.0
mesh vtk view
ASCII
DATASET UNSTRUCTURED_GRID
POINTS 41 double
0.0 0.0 0.0
0.0024664154584745236 19.982623545362916 0.0
20.0 20.0 0.0
-0.004680023332443562 0.9991311772672486 0.0
-0.017733527146390853 1.998262354534671 0.0
-0.03768066216673677 2.997393531801009 0.0
-0.06304157911838507 3.996524709066237 0.0
-0.09233642872628375 4.995655886331464 0.0
-0.12408536171536227 5.994787063596691 0.0
-0.15680852881055016 6.993918240861919 0.0
-0.18902608073677923 7.993049418127216 0.0
-0.21925816821909447 8.992180595396604 0.0
-0.2460249419822802 9.991311772666268 0.0
-0.2678465527512378 10.990442949935936 0.0
-0.28324315125087673 11.9895741272056 0.0
-0.29073488820610566 12.988705304475264 0.0
-0.28884191434183265 13.987836481744928 0.0
-0.276084380382966 14.986967659014594 0.0
-0.2509824370544141 15.986098836284258 0.0
-0.2120562350810854 16.98523001355392 0.0
-0.15782592518788865 17.984361190823584 0.0
-0.08681165809973247 18.983492368093252 0.0
1.002343094684653 19.87553637187623 0.0
2.0022197739110053 19.758435178722223 0.0
3.002096453136273 19.6399555157289 0.0
4.001973132360429 19.527539384087856 0.0
5.001849811584584 19.42743523635429 0.0
6.00172649080874 19.344697976447307 0.0
7.001603170032896 19.28318895964977 0.0
8.001479849257121 19.24557599260831 0.0
9.00135652848544 19.233333333333334 0.0
10.001233207714037 19.246741691199215 0.0
11.001109886942636 19.284888226943877 0.0
12.000986566171232 19.345666552668973 0.0
13.000863245399827 19.425776731839903 0.0
14.000739924628423 19.520725279285816 0.0
15.00061660385702 19.624825161199603 0.0
16.000493283085614 19.7311957951379 0.0
17.00036996231421 19.831763050021088 0.0
18.000246641542805 19.9172592461333 0.0
19.000123320771404 19.977223155122395 0.0

CELLS 40 120
2 0 3
2 3 4
2 4 5
2 5 6
2 6 7
2 7 8
2 8 9
2 9 10
2 10 11
2 11 12
2 12 13
2 13 14
2 14 15
2 15 16
2 16 17
2 17 18
2 18 19
2 19 20
2 20 21
2 21 1
2 1 22
2 22 23
2 23 24
2 24 25
2 25 26
2 26 27
2 27 28
2 28 29
2 29 30
2 30 31
2 31 32
2 32 33
2 33 34
2 34 35
2 35 36
2 36 37
2 37 38
2 38 39
2 39 40
2 40 2

CELL_TYPES 40
3
3
3
3
3
3
3
3
3
3
3
3
3
3
3
3
3
3
3
3
3
3
3
3
3
3
3
3
3
3
3
3
3
3
3
3
3
3
3
3

POINT_DATA 41
SCALARS CellEntityIds float 1
LOOKUP_TABLE default
0.0
0.00017645487929356232
0.0
4.785715142055433e-05
0.00017914768875891231
0.0003797486067115248
0.0006347856701113123
0.0009293820859200112
0.001248661107407179
0.0015777464185265553
0.0019017623913919637
0.002205834423223718
0.0024750894589054976
0.0026946568567311974
0.0028496699025292553
0.0029252686238739754
0.0029066054262659497
0.002778857515316227
0.002527258025238122
0.0021371896925595265
0.0015945610713704167
0.0008884486393772768
0.0012515855062565824
0.0024288078019131794
0.003619967316199037
0.004750185003592792
0.005756625924258961
0.006588463457584184
0.0072068734663824335
0.007585032759148874
0.007708118565019143
0.0075733083218126095
0.00718977957967682
0.0065787099531831525
0.005773277095787221
0.004818658685420919
0.003772032415975909
0.002702575992067807
0.00169146712570729
0.0008318835341206268
0.00022900293827858285
