# vtk DataFile Version 2.0
mesh vtk view
ASCII
DATASET UNSTRUCTURED_GRID
POINTS 41 double
0.0 0.0 0.0
0.0007506481830139854 19.994711513806106 0.0
20.0 20.0 0.0
-0.0014243549272654318 0.9997355756894075 0.0
-0.0053971604358580855 1.999471151378989 0.0
-0.011468027615963362 2.9992067270674854 0.0
-0.019186567557769364 3.998942302754871 0.0
-0.028102391351477664 4.998677878442256 0.0
-0.037765110087284164 5.998413454129641 0.0
-0.047724334855384826 6.998149029817026 0.0
-0.057529676745976276 7.99788460550448 0.0
-0.0667307468492896 8.997620181196028 0.0
-0.07487715625547657 9.997355756887854 0.0
-0.08151851605472454 10.997091332579682 0.0
-0.08620443733722334 11.996826908271506 0.0
-0.08848453119316257 12.99656248396333 0.0
-0.08790840871273167 13.996298059655157 0.0
-0.08402568098612008 14.996033635346981 0.0
-0.07638595910351732 15.995769211038805 0.0
-0.06453885415511294 16.995504786730628 0.0
-0.04803397723109654 17.995240362422454 0.0
-0.026420939421657706 18.99497593811428 0.0
1.0007131157729654 19.962119765353634 0.0
2.0006755833630905 19.926480271785024 0.0
3.000638050952131 19.89042124391749 0.0
4.000600518540059 19.856207638635436 0.0
5.0005629861279886 19.825741158890438 0.0
6.000525453715916 19.800560253701356 0.0
7.0004879213038445 19.78184011815428 0.0
8.000450388891842 19.770392693402528 0.0
9.000412856483935 19.766666666666666 0.0
10.000375324076305 19.770747471234543 0.0
11.000337791668677 19.78235728646118 0.0
12.000300259261047 19.80085503776882 0.0
13.000262726853414 19.825236396646925 0.0
14.000225194445784 19.854133780652205 0.0
15.000187662038154 19.885816353408575 0.0
16.000150129630523 19.91819002460719 0.0
17.00011259722289 19.948797450006417 0.0
18.00007506481526 19.974818031431873 0.0
19.00003753240763 19.993067916776383 0.0

CELLS 40 120
2 0 3
2 3 4
2 4 5
2 5 6
2 6 7
2 7 8
2 8 9
2 9 10
2 10 11
2 11 12
2 12 13
2 13 14
2 14 15
2 15 16
2 16 17
2 17 18
2 18 19
2 19 20
2 20 21
2 21 1
2 1 22
2 22 23
2 23 24
2 24 25
2 25 26
2 26 27
2 27 28
2 28 29
2 29 30
2 30 31
2 31 32
2 32 33
2 33 34
2 34 35
2 35 36
2 36 37
2 37 38
2 38 39
2 39 40
2 40 2

CELL_TYPES 40
3
3
3
3
3
3
3
3
3
3
3
3
3
3
3
3
3
3
3
3
3
3
3
3
3
3
3
3
3
3
3
3
3
3
3
3
3
3
3
3

POINT_DATA 41
SCALARS CellEntityIds float 1
LOOKUP_TABLE default
0.0
0.00017645487929356232
0.0
4.785715142055433e-05
0.00017914768875891231
0.0003797486067115248
0.0006347856701113123
0.0009293820859200112
0.001248661107407179
0.0015777464185265553
0.0019017623913919637
0.002205834423223718
0.0024750894589054976
0.0026946568567311974
0.0028496699025292553
0.0029252686238739754
0.0029066054262659497
0.002778857515316227
0.002527258025238122
0.0021371896925595265
0.0015945610713704167
0.0008884486393772768
0.0012515855062565824
0.0024288078019131794
0.003619967316199037
0.004750185003592792
0.005756625924258961
0.006588463457584184
0.0072068734663824335
0.007585032759148874
0.007708118565019143
0.0075733083218126095
0.00718977957967682
0.0065787099531831525
0.005773277095787221
0.004818658685420919
0.003772032415975909
0.002702575992067807
0.00169146712570729
0.0008318835341206268
0.00022900293827858285
