# vtk DataFile Version 2.0
mesh vtk view
ASCII
DATASET UNSTRUCTURED_GRID
POINTS 41 double
0.0 0.0 0.0
0.002144709094325673 19.984890039446014 0.0
20.0 20.0 0.0
-0.004069585506472664 0.9992445019714034 0.0
-0.015420458388165963 1.9984890039429806 0.0
-0.032765793188466764 2.9977335059134735 0.0
-0.05481876445076963 3.9969780078828556 0.0
-0.08029254671850763 4.996222509852238 0.0
-0.10790031453509766 5.99546701182162 0.0
-0.1363552424439567 6.994711513791001 0.0
-0.1643705049885037 7.993956015760453 0.0
-0.19065927671225608 8.993200517733996 0.0
-0.21393473215850456 9.992445019707816 0.0
-0.23291004587064162 10.991689521681637 0.0
-0.2462983923920668 11.990934023655457 0.0
-0.25281294626617884 12.990178525629277 0.0
-0.25116688203637627 13.989423027603097 0.0
-0.24007337424605746 14.988667529576917 0.0
-0.218245597438621 15.987912031550735 0.0
-0.1843967261574656 16.987156533524555 0.0
-0.13723993494599016 17.986401035498375 0.0
-0.07548839834759347 18.985645537472195 0.0
1.0020374736387114 19.891770758153243 0.0
2.001930238183271 19.7899436336715 0.0
3.0018230027267463 19.686917839764263 0.0
4.0017157672691095 19.58916468181553 0.0
5.001608531811472 19.50211759682982 0.0
6.001501296353836 19.43017215343244 0.0
7.001394060896199 19.376686051869363 0.0
8.001286825438632 19.343979124007227 0.0
9.001179589985158 19.333333333333332 0.0
10.001072354531962 19.34499277495584 0.0
11.000965119078769 19.37816367560337 0.0
12.000857883625573 19.431014393625194 0.0
13.000750648172374 19.500675418991218 0.0
14.000643412719178 19.583239373292013 0.0
15.000536177265984 19.673761009738786 0.0
16.000428941812785 19.766257213163392 0.0
17.00032170635959 19.85370700001834 0.0
18.000214470906393 19.92805151837678 0.0
19.000107235453196 19.980194047932518 0.0

CELLS 40 120
2 0 3
2 3 4
2 4 5
2 5 6
2 6 7
2 7 8
2 8 9
2 9 10
2 10 11
2 11 12
2 12 13
2 13 14
2 14 15
2 15 16
2 16 17
2 17 18
2 18 19
2 19 20
2 20 21
2 21 1
2 1 22
2 22 23
2 23 24
2 24 25
2 25 26
2 26 27
2 27 28
2 28 29
2 29 30
2 30 31
2 31 32
2 32 33
2 33 34
2 34 35
2 35 36
2 36 37
2 37 38
2 38 39
2 39 40
2 40 2

CELL_TYPES 40
3
3
3
3
3
3
3
3
3
3
3
3
3
3
3
3
3
3
3
3
3
3
3
3
3
3
3
3
3
3
3
3
3
3
3
3
3
3
3
3

POINT_DATA 41
SCALARS CellEntityIds float 1
LOOKUP_TABLE default
0.0
0.00017645487929356232
0.0
4.785715142055433e-05
0.00017914768875891231
0.0003797486067115248
0.0006347856701113123
0.0009293820859200112
0.001248661107407179
0.0015777464185265553
0.0019017623913919637
0.002205834423223718
0.0024750894589054976
0.0026946568567311974
0.0028496699025292553
0.0029252686238739754
0.0029066054262659497
0.002778857515316227
0.002527258025238122
0.0021371896925595265
0.0015945610713704167
0.0008884486393772768
0.0012515855062565824
0.0024288078019131794
0.003619967316199037
0.004750185003592792
0.005756625924258961
0.006588463457584184
0.0072068734663824335
0.007585032759148874
0.007708118565019143
0.0075733083218126095
0.00718977957967682
0.0065787099531831525
0.005773277095787221
0.004818658685420919
0.003772032415975909
0.002702575992067807
0.00169146712570729
0.0008318835341206268
0.00022900293827858285
