# vtk DataFile Version 2.0
mesh vtk view
ASCII
DATASET UNSTRUCTURED_GRID
POINTS 41 double
0.0 0.0 0.0
0.0017157672754605383 19.98791203155681 0.0
20.0 20.0 0.0
-0.0032556684051781304 0.9993956015769432 0.0
-0.012336366710532768 1.99879120315406 0.0
-0.026212634550773408 2.998186804730093 0.0
-0.0438550115606157 3.997582406305014 0.0
-0.0642340373748061 4.996978007879935 0.0
-0.08632025162807812 5.9963736094548565 0.0
-0.10908419395516533 6.995769211029778 0.0
-0.13149640399080295 7.995164812604769 0.0
-0.15252742136980485 8.994560414183852 0.0
-0.17114778572680361 9.993956015763212 0.0
-0.1863280366965133 10.993351617342574 0.0
-0.1970387139136534 11.992747218921934 0.0
-0.20225035701294306 12.992142820501293 0.0
-0.200933505629101 13.991538422080653 0.0
-0.19205869939684594 14.990934023660014 0.0
-0.17459647795089678 15.990329625239372 0.0
-0.14751738092597247 16.98972522681873 0.0
-0.10979194795679212 17.98912082839809 0.0
-0.060390718678074766 18.98851642997745 0.0
1.0016299789107896 19.913416606522595 0.0
2.0015441905462925 19.8319549069372 0.0
3.001458402180711 19.74953427181141 0.0
4.001372613814017 19.671331745452424 0.0
5.001286825447323 19.601694077463854 0.0
6.001201037080629 19.54413772274595 0.0
7.001115248713935 19.501348841495492 0.0
8.001029460347311 19.47518329920578 0.0
9.000943671984782 19.466666666666665 0.0
10.00085788362253 19.475994219964672 0.0
11.00077209526028 19.502530940482696 0.0
12.000686306898027 19.544811514900154 0.0
13.000600518535771 19.600540335192974 0.0
14.000514730173519 19.66659149863361 0.0
15.000428941811267 19.739008807791027 0.0
16.000343153449013 19.81300577053071 0.0
17.000257365086757 19.88296560001467 0.0
18.000171576724505 19.942441214701425 0.0
19.000085788362252 19.984155238346013 0.0

CELLS 40 120
2 0 3
2 3 4
2 4 5
2 5 6
2 6 7
2 7 8
2 8 9
2 9 10
2 10 11
2 11 12
2 12 13
2 13 14
2 14 15
2 15 16
2 16 17
2 17 18
2 18 19
2 19 20
2 20 21
2 21 1
2 1 22
2 22 23
2 23 24
2 24 25
2 25 26
2 26 27
2 27 28
2 28 29
2 29 30
2 30 31
2 31 32
2 32 33
2 33 34
2 34 35
2 35 36
2 36 37
2 37 38
2 38 39
2 39 40
2 40 2

CELL_TYPES 40
3
3
3
3
3
3
3
3
3
3
3
3
3
3
3
3
3
3
3
3
3
3
3
3
3
3
3
3
3
3
3
3
3
3
3
3
3
3
3
3

POINT_DATA 41
SCALARS CellEntityIds float 1
LOOKUP_TABLE default
0.0
0.00017645487929356232
0.0
4.785715142055433e-05
0.00017914768875891231
0.0003797486067115248
0.0006347856701113123
0.0009293820859200112
0.001248661107407179
0.0015777464185265553
0.0019017623913919637
0.002205834423223718
0.0024750894589054976
0.0026946568567311974
0.0028496699025292553
0.0029252686238739754
0.0029066054262659497
0.002778857515316227
0.002527258025238122
0.0021371896925595265
0.0015945610713704167
0.0008884486393772768
0.0012515855062565824
0.0024288078019131794
0.003619967316199037
0.004750185003592792
0.005756625924258961
0.006588463457584184
0.0072068734663824335
0.007585032759148874
0.007708118565019143
0.0075733083218126095
0.00718977957967682
0.0065787099531831525
0.005773277095787221
0.004818658685420919
0.003772032415975909
0.002702575992067807
0.00169146712570729
0.0008318835341206268
0.00022900293827858285
