# vtk DataFile Version 2.0
mesh vtk view
ASCII
DATASET UNSTRUCTURED_GRID
POINTS 41 double
0.0 0.0 0.0
0.00021447090943256723 19.998489003944602 0.0
20.0 20.0 0.0
-0.00040695855064726624 0.9999244501963321 0.0
-0.0015420458388165957 1.9998489003928381 0.0
-0.003276579318846675 2.9997733505882596 0.0
-0.005481876445076961 3.999697800782569 0.0
-0.00802925467185076 4.999622250976879 0.0
-0.010790031453509761 5.999546701171187 0.0
-0.013635524244395665 6.999471151365497 0.0
-0.016437050498850365 7.9993956015598755 0.0
-0.019065927671225603 8.99932005175835 0.0
-0.02139347321585045 9.999244501957099 0.0
-0.023291004587064155 10.999168952155852 0.0
-0.024629839239206672 11.999093402354603 0.0
-0.02528129462661788 12.99901785255335 0.0
-0.02511668820363762 13.998942302752102 0.0
-0.024007337424605736 14.998866752950851 0.0
-0.02182455974386209 15.998791203149601 0.0
-0.018439672615746555 16.99871565334835 0.0
-0.013723993494599011 17.9986401035471 0.0
-0.007548839834759344 18.99856455374585 0.0
1.000203747363063 19.989177075815324 0.0
2.0001930238168675 19.97899436336715 0.0
3.0001823002695867 19.968691783976425 0.0
4.000171576721194 19.958916468181553 0.0
5.000160853172802 19.950211759682983 0.0
6.0001501296244095 19.943017215343243 0.0
7.000139406076016 19.937668605186936 0.0
8.000128682527693 19.934397912400723 0.0
9.000117958983466 19.933333333333334 0.0
10.000107235439515 19.934499277495583 0.0
11.000096511895565 19.937816367560337 0.0
12.000085788351614 19.94310143936252 0.0
13.00007506480766 19.950067541899124 0.0
14.00006434126371 19.9583239373292 0.0
15.00005361771976 19.96737610097388 0.0
16.000042894175806 19.97662572131634 0.0
17.000032170631854 19.985370700001834 0.0
18.000021447087903 19.99280515183768 0.0
19.00001072354395 19.99801940479325 0.0

CELLS 40 120
2 0 3
2 3 4
2 4 5
2 5 6
2 6 7
2 7 8
2 8 9
2 9 10
2 10 11
2 11 12
2 12 13
2 13 14
2 14 15
2 15 16
2 16 17
2 17 18
2 18 19
2 19 20
2 20 21
2 21 1
2 1 22
2 22 23
2 23 24
2 24 25
2 25 26
2 26 27
2 27 28
2 28 29
2 29 30
2 30 31
2 31 32
2 32 33
2 33 34
2 34 35
2 35 36
2 36 37
2 37 38
2 38 39
2 39 40
2 40 2

CELL_TYPES 40
3
3
3
3
3
3
3
3
3
3
3
3
3
3
3
3
3
3
3
3
3
3
3
3
3
3
3
3
3
3
3
3
3
3
3
3
3
3
3
3

POINT_DATA 41
SCALARS CellEntityIds float 1
LOOKUP_TABLE default
0.0
0.00017645487929356232
0.0
4.785715142055433e-05
0.00017914768875891231
0.0003797486067115248
0.0006347856701113123
0.0009293820859200112
0.001248661107407179
0.0015777464185265553
0.0019017623913919637
0.002205834423223718
0.0024750894589054976
0.0026946568567311974
0.0028496699025292553
0.0029252686238739754
0.0029066054262659497
0.002778857515316227
0.002527258025238122
0.0021371896925595265
0.0015945610713704167
0.0008884486393772768
0.0012515855062565824
0.0024288078019131794
0.003619967316199037
0.004750185003592792
0.005756625924258961
0.006588463457584184
0.0072068734663824335
0.007585032759148874
0.007708118565019143
0.0075733083218126095
0.00718977957967682
0.0065787099531831525
0.005773277095787221
0.004818658685420919
0.003772032415975909
0.002702575992067807
0.00169146712570729
0.0008318835341206268
0.00022900293827858285
