# vtk DataFile Version 2.0
mesh vtk view
ASCII
DATASET UNSTRUCTURED_GRID
POINTS 41 double
0.0 0.0 0.0
0.0023591800037582396 19.983379043390613 0.0
20.0 20.0 0.0
-0.004476544057119928 0.9991689521686336 0.0
-0.016962504226982554 1.9983379043374407 0.0
-0.036042372507313424 2.997506856505164 0.0
-0.06030064089584657 3.9966758086717764 0.0
-0.08832180139035836 4.995844760838389 0.0
-0.11869034598860738 5.995013713005001 0.0
-0.14999076668835232 6.994182665171612 0.0
-0.18080755548735403 7.993351617338295 0.0
-0.20972520438348163 8.992520569509068 0.0
-0.23532820537435492 9.991689521680119 0.0
-0.2562010504577057 10.99085847385117 0.0
-0.2709282316312734 11.99002742602222 0.0
-0.27809424089279666 12.989196378193268 0.0
-0.2762835702400138 13.988365330364319 0.0
-0.2640807116706631 14.987534282535368 0.0
-0.240070157182483 15.986703234706416 0.0
-0.2028363987732121 16.985872186877465 0.0
-0.15096392844058912 17.985041139048516 0.0
-0.08303723818235278 18.984210091219566 0.0
1.0022412210026725 19.880947833968566 0.0
2.0021232620017604 19.76893799703865 0.0
3.002005302999764 19.655609623740688 0.0
4.001887343996655 19.54808114999708 0.0
5.001769384993548 19.452329356512802 0.0
6.001651425990438 19.373189368775684 0.0
7.00153346698733 19.314354657056302 0.0
8.00141550798429 19.27837703640795 0.0
9.001297548985347 19.266666666666666 0.0
10.001179589986679 19.279492052451424 0.0
11.001061630988014 19.31598004316371 0.0
12.000943671989345 19.374115832987712 0.0
13.000825712990677 19.45074296089034 0.0
14.000707753992009 19.541563310621214 0.0
15.000589794993342 19.641137110712663 0.0
16.000471835994674 19.74288293447973 0.0
17.000353876996 19.839077700020173 0.0
18.000235917997337 19.92085667021446 0.0
19.00011795899867 19.978213452725768 0.0

CELLS 40 120
2 0 3
2 3 4
2 4 5
2 5 6
2 6 7
2 7 8
2 8 9
2 9 10
2 10 11
2 11 12
2 12 13
2 13 14
2 14 15
2 15 16
2 16 17
2 17 18
2 18 19
2 19 20
2 20 21
2 21 1
2 1 22
2 22 23
2 23 24
2 24 25
2 25 26
2 26 27
2 27 28
2 28 29
2 29 30
2 30 31
2 31 32
2 32 33
2 33 34
2 34 35
2 35 36
2 36 37
2 37 38
2 38 39
2 39 40
2 40 2

CELL_TYPES 40
3
3
3
3
3
3
3
3
3
3
3
3
3
3
3
3
3
3
3
3
3
3
3
3
3
3
3
3
3
3
3
3
3
3
3
3
3
3
3
3

POINT_DATA 41
SCALARS CellEntityIds float 1
LOOKUP_TABLE default
0.0
0.00017645487929356232
0.0
4.785715142055433e-05
0.00017914768875891231
0.0003797486067115248
0.0006347856701113123
0.0009293820859200112
0.001248661107407179
0.0015777464185265553
0.0019017623913919637
0.002205834423223718
0.0024750894589054976
0.0026946568567311974
0.0028496699025292553
0.0029252686238739754
0.0029066054262659497
0.002778857515316227
0.002527258025238122
0.0021371896925595265
0.0015945610713704167
0.0008884486393772768
0.0012515855062565824
0.0024288078019131794
0.003619967316199037
0.004750185003592792
0.005756625924258961
0.006588463457584184
0.0072068734663824335
0.007585032759148874
0.007708118565019143
0.0075733083218126095
0.00718977957967682
0.0065787099531831525
0.005773277095787221
0.004818658685420919
0.003772032415975909
0.002702575992067807
0.00169146712570729
0.0008318835341206268
0.00022900293827858285
