# vtk DataFile Version 2.0
mesh vtk view
ASCII
DATASET UNSTRUCTURED_GRID
POINTS 41 double
0.0 0.0 0.0
0.0010723545471628363 19.992445019723007 0.0
20.0 20.0 0.0
-0.002034792753236331 0.9996222509852527 0.0
-0.007710229194082979 1.9992445019706793 0.0
-0.016382896594233375 2.9988667529550215 0.0
-0.027409382225384804 3.998489003938252 0.0
-0.040146273359253803 4.998111254921483 0.0
-0.05395015726754881 5.997733505904713 0.0
-0.06817762122197832 6.997355756887943 0.0
-0.08218525249425182 7.996978007871244 0.0
-0.09532963835612801 8.996600258858637 0.0
-0.10696736607925224 9.996222509846307 0.0
-0.11645502293532078 10.995844760833979 0.0
-0.12314919619603336 11.995467011821649 0.0
-0.1264064731330894 12.995089262809318 0.0
-0.1255834410181881 13.994711513796988 0.0
-0.12003668712302869 14.994333764784658 0.0
-0.10912279871931047 15.993956015772326 0.0
-0.09219836307873278 16.993578266759997 0.0
-0.06861996747299506 17.993200517747667 0.0
-0.03774419917379672 18.992822768735337 0.0
1.0010187368189067 19.94588537907662 0.0
2.0009651190908246 19.89497181683575 0.0
3.0009115013616574 19.84345891988213 0.0
4.000857883631379 19.794582340907763 0.0
5.0008042659011 19.75105879841491 0.0
6.000750648170821 19.715086076716222 0.0
7.000697030440541 19.68834302593468 0.0
8.000643412710332 19.671989562003613 0.0
9.000589794984219 19.666666666666668 0.0
10.00053617725838 19.67249638747792 0.0
11.000482559532545 19.689081837801687 0.0
12.000428941806707 19.715507196812595 0.0
13.000375324080867 19.75033770949561 0.0
14.00032170635503 19.79161968664601 0.0
15.000268088629191 19.83688050486939 0.0
16.00021447090335 19.883128606581696 0.0
17.000160853177512 19.92685350000917 0.0
18.000107235451676 19.96402575918839 0.0
19.000053617725836 19.990097023966257 0.0

CELLS 40 120
2 0 3
2 3 4
2 4 5
2 5 6
2 6 7
2 7 8
2 8 9
2 9 10
2 10 11
2 11 12
2 12 13
2 13 14
2 14 15
2 15 16
2 16 17
2 17 18
2 18 19
2 19 20
2 20 21
2 21 1
2 1 22
2 22 23
2 23 24
2 24 25
2 25 26
2 26 27
2 27 28
2 28 29
2 29 30
2 30 31
2 31 32
2 32 33
2 33 34
2 34 35
2 35 36
2 36 37
2 37 38
2 38 39
2 39 40
2 40 2

CELL_TYPES 40
3
3
3
3
3
3
3
3
3
3
3
3
3
3
3
3
3
3
3
3
3
3
3
3
3
3
3
3
3
3
3
3
3
3
3
3
3
3
3
3

POINT_DATA 41
SCALARS CellEntityIds float 1
LOOKUP_TABLE default
0.0
0.00017645487929356232
0.0
4.785715142055433e-05
0.00017914768875891231
0.0003797486067115248
0.0006347856701113123
0.0009293820859200112
0.001248661107407179
0.0015777464185265553
0.0019017623913919637
0.002205834423223718
0.0024750894589054976
0.0026946568567311974
0.0028496699025292553
0.0029252686238739754
0.0029066054262659497
0.002778857515316227
0.002527258025238122
0.0021371896925595265
0.0015945610713704167
0.0008884486393772768
0.0012515855062565824
0.0024288078019131794
0.003619967316199037
0.004750185003592792
0.005756625924258961
0.006588463457584184
0.0072068734663824335
0.007585032759148874
0.007708118565019143
0.0075733083218126095
0.00718977957967682
0.0065787099531831525
0.005773277095787221
0.004818658685420919
0.003772032415975909
0.002702575992067807
0.00169146712570729
0.0008318835341206268
0.00022900293827858285
