# vtk DataFile Version 2.0
mesh vtk view
ASCII
DATASET UNSTRUCTURED_GRID
POINTS 41 double
0.0 0.0 0.0
0.0006434127282977018 19.995467011833803 0.0
20.0 20.0 0.0
-0.0012208756519417987 0.9997733505907924 0.0
-0.004626137516449787 1.9995467011817587 0.0
-0.009829737956540026 2.9993200517716403 0.0
-0.016445629335230885 3.9990934023604106 0.0
-0.024087764015552283 4.998866752949181 0.0
-0.03237009436052929 5.99864010353795 0.0
-0.04090657273318699 6.99841345412672 0.0
-0.049311151496551096 7.9981868047155595 0.0
-0.057197783013676805 8.997960155308492 0.0
-0.06418041964755135 9.997733505901703 0.0
-0.06987301376119247 10.997506856494915 0.0
-0.07388951771762 11.997280207088126 0.0
-0.07584388387985364 12.997053557681335 0.0
-0.07535006461091286 13.996826908274546 0.0
-0.07202201227381722 14.996600258867755 0.0
-0.06547367923158627 15.996373609460964 0.0
-0.055319017847239665 16.996146960054173 0.0
-0.041171980483797034 17.99592031064738 0.0
-0.022646519504278033 18.995693661240594 0.0
1.000611242090985 19.967531227445974 0.0
2.000579071453846 19.93698309010145 0.0
3.000546900815622 19.906075351929278 0.0
4.0005147301762864 19.876749404544658 0.0
5.000482559536951 19.850635279048944 0.0
6.000450388897615 19.829051646029733 0.0
7.000418218258279 19.81300581556081 0.0
8.000386047619013 19.803193737202168 0.0
9.000353876983842 19.8 0.0
10.000321706348947 19.80349783248675 0.0
11.000289535714055 19.813449102681012 0.0
12.000257365079161 19.82930431808756 0.0
13.000225194444264 19.850202625697367 0.0
14.00019302380937 19.874971811987603 0.0
15.000160853174476 19.902128302921636 0.0
16.00012868253958 19.92987716394902 0.0
17.000096511904683 19.9561121000055 0.0
18.000064341269788 19.978415455513034 0.0
19.000032170634896 19.994058214379756 0.0

CELLS 40 120
2 0 3
2 3 4
2 4 5
2 5 6
2 6 7
2 7 8
2 8 9
2 9 10
2 10 11
2 11 12
2 12 13
2 13 14
2 14 15
2 15 16
2 16 17
2 17 18
2 18 19
2 19 20
2 20 21
2 21 1
2 1 22
2 22 23
2 23 24
2 24 25
2 25 26
2 26 27
2 27 28
2 28 29
2 29 30
2 30 31
2 31 32
2 32 33
2 33 34
2 34 35
2 35 36
2 36 37
2 37 38
2 38 39
2 39 40
2 40 2

CELL_TYPES 40
3
3
3
3
3
3
3
3
3
3
3
3
3
3
3
3
3
3
3
3
3
3
3
3
3
3
3
3
3
3
3
3
3
3
3
3
3
3
3
3

POINT_DATA 41
SCALARS CellEntityIds float 1
LOOKUP_TABLE default
0.0
0.00017645487929356232
0.0
4.785715142055433e-05
0.00017914768875891231
0.0003797486067115248
0.0006347856701113123
0.0009293820859200112
0.001248661107407179
0.0015777464185265553
0.0019017623913919637
0.002205834423223718
0.0024750894589054976
0.0026946568567311974
0.0028496699025292553
0.0029252686238739754
0.0029066054262659497
0.002778857515316227
0.002527258025238122
0.0021371896925595265
0.0015945610713704167
0.0008884486393772768
0.0012515855062565824
0.0024288078019131794
0.003619967316199037
0.004750185003592792
0.005756625924258961
0.006588463457584184
0.0072068734663824335
0.007585032759148874
0.007708118565019143
0.0075733083218126095
0.00718977957967682
0.0065787099531831525
0.005773277095787221
0.004818658685420919
0.003772032415975909
0.002702575992067807
0.00169146712570729
0.0008318835341206268
0.00022900293827858285
