# vtk DataFile Version 2.0
mesh vtk view
ASCII
DATASET UNSTRUCTURED_GRID
POINTS 41 double
0.0 0.0 0.0
0.0015012963660279708 19.989423027612208 0.0
20.0 20.0 0.0
-0.002848709854530864 0.999471151379713 0.0
-0.010794320871716171 1.9989423027595998 0.0
-0.022936055231926728 2.998413454138402 0.0
-0.038373135115538734 3.9978846055160933 0.0
-0.05620478270295533 4.997355756893785 0.0
-0.07553022017456834 5.996826908271475 0.0
-0.09544866971076967 6.996298059649166 0.0
-0.11505935349195257 7.995769211026928 0.0
-0.13346149369857924 8.995240362408781 0.0
-0.14975431251095314 9.99471151379091 0.0
-0.16303703210944911 10.994182665173042 0.0
-0.1724088746744467 11.993653816555174 0.0
-0.17696906238632518 12.993124967937302 0.0
-0.17581681742546335 13.992596119319431 0.0
-0.1680513619722402 14.992067270701561 0.0
-0.15277191820703467 15.991538422083691 0.0
-0.12907770831022589 16.991009573465817 0.0
-0.09606795446219309 17.99048072484795 0.0
-0.05284187884331542 18.98995187623008 0.0
1.0014262315468287 19.92423953070727 0.0
2.001351166727803 19.85296054357005 0.0
3.001276101907693 19.780842487834985 0.0
4.001201037086471 19.712415277270868 0.0
5.001125972265249 19.65148231778087 0.0
6.001050907444027 19.601120507402708 0.0
7.000975842622804 19.563680236308556 0.0
8.000900777801652 19.54078538680506 0.0
9.000825712984595 19.533333333333335 0.0
10.000750648167813 19.54149494246909 0.0
11.000675583351034 19.56471457292236 0.0
12.000600518534252 19.601710075537635 0.0
13.00052545371747 19.650472793293854 0.0
14.000450388900688 19.70826756130441 0.0
15.000375324083908 19.77163270681715 0.0
16.000300259267124 19.836380049214373 0.0
17.000225194450344 19.897594900012837 0.0
18.00015012963356 19.949636062863746 0.0
19.00007506481678 19.986135833552762 0.0

CELLS 40 120
2 0 3
2 3 4
2 4 5
2 5 6
2 6 7
2 7 8
2 8 9
2 9 10
2 10 11
2 11 12
2 12 13
2 13 14
2 14 15
2 15 16
2 16 17
2 17 18
2 18 19
2 19 20
2 20 21
2 21 1
2 1 22
2 22 23
2 23 24
2 24 25
2 25 26
2 26 27
2 27 28
2 28 29
2 29 30
2 30 31
2 31 32
2 32 33
2 33 34
2 34 35
2 35 36
2 36 37
2 37 38
2 38 39
2 39 40
2 40 2

CELL_TYPES 40
3
3
3
3
3
3
3
3
3
3
3
3
3
3
3
3
3
3
3
3
3
3
3
3
3
3
3
3
3
3
3
3
3
3
3
3
3
3
3
3

POINT_DATA 41
SCALARS CellEntityIds float 1
LOOKUP_TABLE default
0.0
0.00017645487929356232
0.0
4.785715142055433e-05
0.00017914768875891231
0.0003797486067115248
0.0006347856701113123
0.0009293820859200112
0.001248661107407179
0.0015777464185265553
0.0019017623913919637
0.002205834423223718
0.0024750894589054976
0.0026946568567311974
0.0028496699025292553
0.0029252686238739754
0.0029066054262659497
0.002778857515316227
0.002527258025238122
0.0021371896925595265
0.0015945610713704167
0.0008884486393772768
0.0012515855062565824
0.0024288078019131794
0.003619967316199037
0.004750185003592792
0.005756625924258961
0.006588463457584184
0.0072068734663824335
0.007585032759148874
0.007708118565019143
0.0075733083218126095
0.00718977957967682
0.0065787099531831525
0.005773277095787221
0.004818658685420919
0.003772032415975909
0.002702575992067807
0.00169146712570729
0.0008318835341206268
0.00022900293827858285
