# vtk DataFile Version 2.0
mesh vtk view
ASCII
DATASET UNSTRUCTURED_GRID
POINTS 41 double
0.0 0.0 0.0
0.0009651190924465524 19.993200517750704 0.0
20.0 20.0 0.0
-0.0018313134779126977 0.9996600258866377 0.0
-0.0069392062746746795 1.999320051773449 0.0
-0.014744606934810035 2.998980077659176 0.0
-0.02466844400284632 3.9986401035437917 0.0
-0.03613164602332842 4.998300129428407 0.0
-0.04855514154079392 5.997960155313022 0.0
-0.06135985909978048 6.997620181197637 0.0
-0.07396672724482663 7.997280207082323 0.0
-0.08579667452051519 8.9969402329711 0.0
-0.096270629471327 9.996600258860155 0.0
-0.10480952064178868 10.996260284749214 0.0
-0.11083427657643 11.995920310638269 0.0
-0.11376582581978043 12.995580336527322 0.0
-0.11302509691636926 13.995240362416377 0.0
-0.1080330184107258 14.994900388305433 0.0
-0.0982105188473794 15.994560414194487 0.0
-0.08297852677085948 16.99422044008354 0.0
-0.06175797072569554 17.993880465972595 0.0
-0.033969779256417046 18.99354049186165 0.0
1.0009168631369263 19.951296841168958 0.0
2.0008686071815798 19.905474635152174 0.0
3.0008203512251486 19.85911302789392 0.0
4.000772095267606 19.815124106816988 0.0
5.000723839310063 19.77595291857342 0.0
6.000675583352519 19.7435774690446 0.0
7.000627327394976 19.719508723341214 0.0
8.000579071437503 19.70479060580325 0.0
9.000530815484124 19.7 0.0
10.000482559531022 19.70524674873013 0.0
11.000434303577922 19.72017365402152 0.0
12.00038604762482 19.743956477131338 0.0
13.000337791671717 19.77530393854605 0.0
14.000289535718615 19.812457717981406 0.0
15.000241279765513 19.85319245438245 0.0
16.000193023812407 19.894815745923527 0.0
17.000144767859304 19.93416815000825 0.0
18.000096511906204 19.967623183269552 0.0
19.0000482559531 19.991087321569633 0.0

CELLS 40 120
2 0 3
2 3 4
2 4 5
2 5 6
2 6 7
2 7 8
2 8 9
2 9 10
2 10 11
2 11 12
2 12 13
2 13 14
2 14 15
2 15 16
2 16 17
2 17 18
2 18 19
2 19 20
2 20 21
2 21 1
2 1 22
2 22 23
2 23 24
2 24 25
2 25 26
2 26 27
2 27 28
2 28 29
2 29 30
2 30 31
2 31 32
2 32 33
2 33 34
2 34 35
2 35 36
2 36 37
2 37 38
2 38 39
2 39 40
2 40 2

CELL_TYPES 40
3
3
3
3
3
3
3
3
3
3
3
3
3
3
3
3
3
3
3
3
3
3
3
3
3
3
3
3
3
3
3
3
3
3
3
3
3
3
3
3

POINT_DATA 41
SCALARS CellEntityIds float 1
LOOKUP_TABLE default
0.0
0.00017645487929356232
0.0
4.785715142055433e-05
0.00017914768875891231
0.0003797486067115248
0.0006347856701113123
0.0009293820859200112
0.001248661107407179
0.0015777464185265553
0.0019017623913919637
0.002205834423223718
0.0024750894589054976
0.0026946568567311974
0.0028496699025292553
0.0029252686238739754
0.0029066054262659497
0.002778857515316227
0.002527258025238122
0.0021371896925595265
0.0015945610713704167
0.0008884486393772768
0.0012515855062565824
0.0024288078019131794
0.003619967316199037
0.004750185003592792
0.005756625924258961
0.006588463457584184
0.0072068734663824335
0.007585032759148874
0.007708118565019143
0.0075733083218126095
0.00718977957967682
0.0065787099531831525
0.005773277095787221
0.004818658685420919
0.003772032415975909
0.002702575992067807
0.00169146712570729
0.0008318835341206268
0.00022900293827858285
