# vtk DataFile Version 2.0
mesh vtk view
ASCII
DATASET UNSTRUCTURED_GRID
POINTS 2 double
0.0 0.0 0.0
2.0 0.0 0.0

CELLS 1 3
2 0 1

CELL_TYPES 1
3

POINT_DATA 2
SCALARS MODE1_1.5915_Hz float 1
LOOKUP_TABLE default
0.0
0.31622776601683794

