# vtk DataFile Version 2.0
mesh vtk view
ASCII
DATASET UNSTRUCTURED_GRID
POINTS 2 double
0.0 0.0 0.0
1.1666666666666665 0.0 0.0

CELLS 1 3
2 0 1

CELL_TYPES 1
3

POINT_DATA 2
SCALARS MODE1_0.6497_Hz float 1
LOOKUP_TABLE default
0.0
0.12909944487358055

