# vtk DataFile Version 2.0
mesh vtk view
ASCII
DATASET UNSTRUCTURED_GRID
POINTS 3 double
0.0 0.0 0.0
1.5000000000000002 0.0 0.0
0.6464466094041106 0.0 0.0

CELLS 2 6
2 0 2
2 2 1

CELL_TYPES 2
3
3

POINT_DATA 3
SCALARS MODE1_0.8613_Hz float 1
LOOKUP_TABLE default
0.0
0.22360679774997894
0.15811388300841894

