# vtk DataFile Version 2.0
mesh vtk view
ASCII
DATASET UNSTRUCTURED_GRID
POINTS 4 double
0.0 0.0 0.0
0.6666666666666665 0.0 0.0
0.16666666666583435 0.0 0.0
0.9553418012606004 0.0 0.0

CELLS 3 9
2 0 2
2 2 3
2 3 1

CELL_TYPES 3
3
3
3

POINT_DATA 4
SCALARS MODE3_2.1741_Hz float 1
LOOKUP_TABLE default
0.0
0.1825741858350554
0.09128709291752765
0.158113883008419

