# vtk DataFile Version 2.0
mesh vtk view
ASCII
DATASET UNSTRUCTURED_GRID
POINTS 100 double
0.0 0.0 0.0
799.6266490944918 -4.999999999999951 0.0
800.3733509055083 75.0 0.0
0.0 80.0 0.0
88.81214963731063 -0.09525654719925619 0.0
177.63138496342881 -0.3469819195519031 0.0
266.4600794466015 -0.7443922267425171 0.0
355.2980541950787 -1.264959341678056 0.0
444.14527130387705 -1.8884578942324253 0.0
533.001752661535 -2.594253756393966 0.0
621.8674929833682 -3.3617948432823246 0.0
710.7425059946902 -4.170405417405874 0.0
799.7098551715048 3.8889861950716824 0.0
799.7928818879908 12.77796947897706 0.0
799.8757804498301 21.666931472788484 0.0
799.9586020415694 30.5558599605975 0.0
800.0413979584296 39.4447488494999 0.0
800.1242195501691 48.333598139471164 0.0
800.2071181120086 57.22241392342505 0.0
800.2901448284949 66.11120841728746 0.0
711.4797162276776 75.82959458258375 0.0
622.5769514613678 76.6382051566977 0.0
533.6649140055694 77.40574624357806 0.0
444.74361758559536 78.11154210574092 0.0
355.81305691676164 78.73504065829997 0.0
266.8732538874363 79.2556077732416 0.0
177.92417059261228 79.6530180804408 0.0
88.96562814076192 79.90474345279918 0.0
0.0 71.1111111111111 0.0
0.0 62.22222222222219 0.0
0.0 53.3333333333333 0.0
0.0 44.44444444444441 0.0
0.0 35.55555555555554 0.0
0.0 26.66666666666665 0.0
0.0 17.77777777777777 0.0
0.0 8.888888888888886 0.0
88.8297469336347 8.796398561456321 0.0
88.8469183433316 17.687336398147018 0.0
88.86381133671308 26.577578764500476 0.0
88.88054672009109 35.46714060515279 0.0
88.89723105798066 44.356029494042986 0.0
88.91396644135875 53.244245431168395 0.0
88.93085943474044 62.13178084259097 0.0
88.94803084443754 71.01862078367662 0.0
177.66400881182977 8.543665902891123 0.0
177.69658028544183 17.433897040883373 0.0
177.7290900087593 26.32369127420395 0.0
177.76155404389593 35.2130358963749 0.0
177.79400151214355 44.10192478526596 0.0
177.82646554728035 52.99035794087172 0.0
177.85897527059814 61.87834148532453 0.0
177.89154674421064 70.76588812510622 0.0
266.5062527780803 8.146160275968004 0.0
266.5522180549968 17.036285121101994 0.0
266.598048320973 25.92599304187464 0.0
266.64380215061556 34.815290089763195 0.0
266.6895311834202 43.7041789786548 0.0
266.735285013063 52.59265970854133 0.0
266.7811152790396 61.48072956553877 0.0
266.8270805559566 70.36838249817573 0.0
355.35548926744684 7.625279442335788 0.0
355.41276892405006 16.51518546724482 0.0
355.46993163555965 25.404754221021076 0.0
355.5270223368007 34.293983488484926 0.0
355.5840887750375 43.18287237737737 0.0
355.6411794762788 52.07142088768754 0.0
355.6983421877889 60.95962991167862 0.0
355.7556218443928 69.84750166453806 0.0
444.21198024685225 7.001519664256741 0.0
444.27851823227047 15.891223349215037 0.0
444.3449362806862 24.780654868363303 0.0
444.41128296144655 33.669814945384395 0.0
444.47760592802376 42.5587038342778 0.0
444.5439526087844 51.44732153502996 0.0
444.61037065720075 60.33566779364665 0.0
444.67690864261937 69.22374188645466 0.0
533.0756622394296 6.295448214883022 0.0
533.1494035354689 15.184947482313785 0.0
533.2230239185639 24.074243476498758 0.0
533.2965716095129 32.96333596045388 0.0
533.3700950575898 41.85222484934865 0.0
533.4436427485389 50.74091014316676 0.0
533.5172631316343 59.62939192674506 0.0
533.5910044276743 68.51767043707923 0.0
621.9465399849951 5.527642880344665 0.0
622.0254228352057 14.416944039123813 0.0
622.1041891028259 23.306108055065028 0.0
622.1828855950109 32.19513458491368 0.0
622.2615588497239 41.08402347381084 0.0
622.340255341909 49.97277472173751 0.0
622.4190216095294 58.86138848355992 0.0
622.4979044597407 67.74986510254634 0.0
710.8246525429379 4.718731702531989 0.0
710.906624739197 13.607801333104412 0.0
710.9884704046864 22.496808175628633 0.0
711.0702394292769 31.385755289124305 0.0
711.1519827930895 40.27464417802405 0.0
711.2337518176805 49.16347484230608 0.0
711.3155974831701 58.05224577754627 0.0
711.3975696794294 66.94095392474046 0.0

CELLS 81 405
4 0 4 36 35
4 35 36 37 34
4 34 37 38 33
4 33 38 39 32
4 32 39 40 31
4 31 40 41 30
4 30 41 42 29
4 29 42 43 28
4 28 43 27 3
4 4 5 44 36
4 36 44 45 37
4 37 45 46 38
4 38 46 47 39
4 39 47 48 40
4 40 48 49 41
4 41 49 50 42
4 42 50 51 43
4 43 51 26 27
4 5 6 52 44
4 44 52 53 45
4 45 53 54 46
4 46 54 55 47
4 47 55 56 48
4 48 56 57 49
4 49 57 58 50
4 50 58 59 51
4 51 59 25 26
4 6 7 60 52
4 52 60 61 53
4 53 61 62 54
4 54 62 63 55
4 55 63 64 56
4 56 64 65 57
4 57 65 66 58
4 58 66 67 59
4 59 67 24 25
4 7 8 68 60
4 60 68 69 61
4 61 69 70 62
4 62 70 71 63
4 63 71 72 64
4 64 72 73 65
4 65 73 74 66
4 66 74 75 67
4 67 75 23 24
4 8 9 76 68
4 68 76 77 69
4 69 77 78 70
4 70 78 79 71
4 71 79 80 72
4 72 80 81 73
4 73 81 82 74
4 74 82 83 75
4 75 83 22 23
4 9 10 84 76
4 76 84 85 77
4 77 85 86 78
4 78 86 87 79
4 79 87 88 80
4 80 88 89 81
4 81 89 90 82
4 82 90 91 83
4 83 91 21 22
4 10 11 92 84
4 84 92 93 85
4 85 93 94 86
4 86 94 95 87
4 87 95 96 88
4 88 96 97 89
4 89 97 98 90
4 90 98 99 91
4 91 99 20 21
4 11 1 12 92
4 92 12 13 93
4 93 13 14 94
4 94 14 15 95
4 95 15 16 96
4 96 16 17 97
4 97 17 18 98
4 98 18 19 99
4 99 19 2 20

CELL_TYPES 81
9
9
9
9
9
9
9
9
9
9
9
9
9
9
9
9
9
9
9
9
9
9
9
9
9
9
9
9
9
9
9
9
9
9
9
9
9
9
9
9
9
9
9
9
9
9
9
9
9
9
9
9
9
9
9
9
9
9
9
9
9
9
9
9
9
9
9
9
9
9
9
9
9
9
9
9
9
9
9
9
9

POINT_DATA 100
SCALARS CellEntityIds float 1
LOOKUP_TABLE default
-5.4590914171637195
-0.31404841929405436
0.31404841928991173
5.459091417169829
-5.084282342830802
-4.4122412782714875
-3.7936519466196263
-3.157902070835612
-2.527302829424249
-1.895115923067399
-1.2637965795336572
-0.6312529272990033
-0.27352650353542274
-0.1935974792473958
-0.1154760443505161
-0.038380858992305006
0.038380858989425795
0.11547604434729399
0.19359747924359264
0.27352650353146946
0.6312529272893884
1.263796579513629
1.8951159230407324
2.527302829396496
3.157902070811307
3.793651946601814
4.412241278265064
5.084282342834512
4.76133936019945
3.37945270109452
2.0195110521446913
0.6718520026667766
-0.6718520026585126
-2.019511052136541
-3.3794527010867528
-4.761339360192654
-4.44808803220209
-3.1760973788041653
-1.9050509707322698
-0.6349004527133034
0.6349004527192273
1.9050509707380057
3.1760973788094264
4.448088032206413
-3.864819939084905
-2.7663686415652786
-1.6620475738537428
-0.554378232236784
0.5543782322399186
1.6620475738558445
2.7663686415650792
3.864819939080843
-3.317486007838463
-2.3669739292960768
-1.419259513702794
-0.4729456189359428
0.47294561893326736
1.4192595136984671
2.366973929288095
3.3174860078243786
-2.763853835568576
-1.9750742224741982
-1.1853112731434248
-0.39513985082196723
0.39513985081372816
1.1853112731334048
1.9750742224602698
2.763853835548218
-2.2111608048608975
-1.5791172068980759
-0.9473998283610163
-0.3157920116138954
0.31579201160470427
0.9473998283497063
1.579117206882313
2.2111608048377405
-1.6583381512155466
-1.184673530229871
-0.7108498958248392
-0.23695655527936116
0.23695655526855888
0.7108498958120867
1.1846735302134264
1.6583381511928108
-1.105788774898883
-0.7897932734780679
-0.4738450081131039
-0.15794221976934705
0.15794221975997683
0.473845008102554
0.7897932734650592
1.1057887748815531
-0.5516052656026903
-0.39293778328735934
-0.235329074194165
-0.0783700928612725
0.07837009285629473
0.23532907418869886
0.3929377832806553
0.5516052655942236
