# vtk DataFile Version 2.0
mesh vtk view
ASCII
DATASET UNSTRUCTURED_GRID
POINTS 729 double
0.0 0.0 0.0
799.6271782307745 -4.999999999999999 0.0
800.3728217692255 75.0 0.0
0.0 80.0 0.0
9.990439537686232 -0.0050246068525376 0.0
19.98158995276374 -0.009348564051098093 0.0
29.972774696331793 -0.015559433894479212 0.0
39.96395487347542 -0.023837644864536562 0.0
49.955192328511274 -0.03429893057920153 0.0
59.94652045358971 -0.046941419860214065 0.0
69.9379557603818 -0.06174312621808145 0.0
79.92950474993002 -0.07867462188951636 0.0
89.9211696678257 -0.09770573230483175 0.0
99.9129511292858 -0.11880657880736253 0.0
109.90484923911015 -0.14194765733961756 0.0
119.89686397952903 -0.16709967654366867 0.0
129.88899532238005 -0.19423344212126034 0.0
139.88124325029102 -0.22331979665596738 0.0
149.87360775512636 -0.25432959452133863 0.0
159.8660888336971 -0.28723369295297557 0.0
169.85868648495165 -0.3220029494638807 0.0
179.85140070861814 -0.35860822133688774 0.0
189.84423150466063 -0.39702036565009324 0.0
199.83717887309402 -0.43721023937047854 0.0
209.83024281393418 -0.47914869941663607 0.0
219.82342332719023 -0.5228066026893564 0.0
229.8167204128663 -0.568154806084001 0.0
239.81013407096393 -0.6151641664947286 0.0
249.80366430148356 -0.6638055408156545 0.0
259.7973111044499 -0.714049785941167 0.0
269.79107447984927 -0.765867758765581 0.0
279.7849544276709 -0.819230316183274 0.0
289.7789509479147 -0.874108315088702 0.0
299.77306404058055 -0.9304726123763274 0.0
309.7672937056687 -0.9882940649406177 0.0
319.7616399431788 -1.0475435296760387 0.0
329.75610275311107 -1.1081918634770578 0.0
339.7506821354656 -1.1702099232381435 0.0
349.7453780902422 -1.2335685658537623 0.0
359.7401906174409 -1.2982386482183788 0.0
369.73511971706165 -1.3641910272264588 0.0
379.7301653891045 -1.431396559772473 0.0
389.72532763356975 -1.4998261027508886 0.0
399.7206064504569 -1.5694505130561696 0.0
409.7160018397663 -1.6402406475827855 0.0
419.7115138014978 -1.7121673632252008 0.0
429.7071423356513 -1.7852015168778836 0.0
439.7028874422272 -1.8593139654353008 0.0
449.69874912122503 -1.9344755657919164 0.0
459.69472737264505 -2.0106571748421995 0.0
469.69082219648715 -2.0878296494806166 0.0
479.6870335927515 -2.1659638466016364 0.0
489.6833615614378 -2.2450306230997272 0.0
499.67980610254654 -2.325000835869352 0.0
509.6763672160905 -2.405845341805086 0.0
519.6730449021056 -2.4875349978016956 0.0
529.6698391605515 -2.5700406607533233 0.0
539.6667499914196 -2.653333187554362 0.0
549.6637773947098 -2.73738343509928 0.0
559.6609213704222 -2.822162260282526 0.0
569.6581819185567 -2.9076405199985422 0.0
579.6555590391134 -2.99378907114173 0.0
589.653052732092 -3.0805787706064423 0.0
599.650662997492 -3.1679804752870826 0.0
609.6483898353121 -3.2559650420784814 0.0
619.6462332455493 -3.3445033278773604 0.0
629.6441932281988 -3.4335661895864047 0.0
639.6422697832571 -3.523124484124181 0.0
649.6404629107394 -3.6131490684447765 0.0
659.6387726107426 -3.7036107995650736 0.0
669.637198883626 -3.7944805345627426 0.0
679.63574173045 -3.8857291303839716 0.0
689.6344011538598 -3.9773274429406973 0.0
699.6331771593392 -4.0692463241006696 0.0
709.6320697552748 -4.1614566133986495 0.0
719.6310789448303 -4.253929118766926 0.0
729.6302046868624 -4.346634580166438 0.0
739.6294467639021 -4.439543626304669 0.0
749.62880441582 -4.532626807408917 0.0
759.6282754669235 -4.625855068292646 0.0
769.6278546388417 -4.7192016663972325 0.0
779.6275312565534 -4.812649440057115 0.0
789.6272931991105 -4.906208610501005 0.0
799.7207460771955 5.000113170399919 0.0
799.813988026455 15.000301425260027 0.0
799.907040459929 25.00044302238251 0.0
799.9999999999994 35.0004941642822 0.0
800.09295954007 45.0004430224032 0.0
800.1860119735444 55.00030142526672 0.0
800.2792539228043 65.00011317039296 0.0
790.3727068009059 75.09379138949781 0.0
780.3724687434792 75.18735055994053 0.0
770.3721453612075 75.28079833359925 0.0
760.371724533142 75.37414493170266 0.0
750.3711955842618 75.46737319258523 0.0
740.3705532361962 75.56045637368833 0.0
730.3697953132522 75.65336541982539 0.0
720.3689210553007 75.74607088122376 0.0
710.3679302448726 75.8385433865909 0.0
700.3668228408246 75.93075367588776 0.0
690.3655988463204 76.02267255704662 0.0
680.3642582697465 76.11427086960224 0.0
670.362801116587 76.20551946542237 0.0
660.3612273894867 76.29638920041896 0.0
650.3595370895064 76.3868509315382 0.0
640.3577302170052 76.47687551585776 0.0
630.3558067720799 76.56643381039451 0.0
620.3537667547458 76.65549667210254 0.0
610.3516101649994 76.74403495790042 0.0
600.3493370028359 76.83201952469086 0.0
590.3469472682523 76.91942122937056 0.0
580.3444409612473 77.00621092883435 0.0
570.3418180818204 77.09235947997664 0.0
560.3390786299714 77.17783773969178 0.0
550.3362226057003 77.26261656487418 0.0
540.3332500090069 77.34666681241828 0.0
530.3301608398914 77.42995933921853 0.0
520.3269550983539 77.5124650021694 0.0
510.3236327843854 77.59415465816542 0.0
500.3201938979458 77.6749991641014 0.0
490.31663843907074 77.75496937687146 0.0
480.31296640777356 77.83403615337002 0.0
470.3091778040541 77.91217035049151 0.0
460.3052726279128 77.9893428251304 0.0
450.3012508793492 78.06552443418116 0.0
440.2971125583635 78.14068603453828 0.0
430.29285766495565 78.21479848309619 0.0
420.2884861991256 78.28783263674937 0.0
410.2839981608736 78.3597593523923 0.0
400.27939355019936 78.43054948691943 0.0
390.27467236710294 78.50017389722524 0.0
380.26983461158443 78.56860344020417 0.0
370.2648802836437 78.63580897275072 0.0
360.25980938328104 78.70176135175934 0.0
350.25462191049604 78.76643143412451 0.0
340.2493178652891 78.82979007674068 0.0
330.2438972476599 78.89180813650232 0.0
320.2383600576086 78.95245647030391 0.0
310.23270629513524 79.0117059350399 0.0
300.2269359602396 79.06952738760477 0.0
290.2210490529086 79.12589168489305 0.0
280.21504557310647 79.18076968379938 0.0
270.20892552087344 79.23413224121803 0.0
260.20268889621804 79.28595021404338 0.0
250.1963356991408 79.33619445916986 0.0
240.18986592964112 79.38483583349185 0.0
230.18327958771965 79.4318451939036 0.0
220.1765766733765 79.47719339729925 0.0
210.16975718661323 79.52085130057293 0.0
200.1628211274343 79.56278976062 0.0
190.15576849584832 79.6029796343413 0.0
180.14859929187176 79.64139177865535 0.0
170.14131351551902 79.67799705052917 0.0
160.13391116675416 79.71276630704085 0.0
150.12639224530565 79.74567040547322 0.0
140.11875675012178 79.7766802033393 0.0
130.1110046780135 79.80576655787465 0.0
120.10313602084531 79.83290032345285 0.0
110.09515076124491 79.85805234265746 0.0
100.08704887104719 79.88119342119023 0.0
90.07883033247312 79.9022942676932 0.0
80.0704952503318 79.9213253781089 0.0
70.062044239843 79.9382568737807 0.0
60.0534795465981 79.95305858013887 0.0
50.0448076716409 79.96570106942015 0.0
40.036045126647224 79.97616235513505 0.0
30.027225303762567 79.98444056610528 0.0
20.01841004730025 79.99065143594879 0.0
10.00956046234545 79.99497539314741 0.0
0.0 70.0 0.0
0.0 60.0 0.0
0.0 50.0 0.0
0.0 40.0 0.0
0.0 30.0 0.0
0.0 20.0 0.0
0.0 10.0 0.0
9.99375991600596 9.99766349246691 0.0
9.995938462360494 19.998948066100404 0.0
9.99799827269032 29.99957226238663 0.0
10.00000000001579 39.99976320994971 0.0
10.002001727341277 49.99957226238687 0.0
10.004061537671113 59.99894806610049 0.0
10.006240084025684 69.99766349246677 0.0
19.98676292289172 9.993206031736031 0.0
19.991469460950448 19.995073022353093 0.0
19.995793652462485 29.996090091373322 0.0
20.0000000000319 39.996412715978344 0.0
20.004206347601325 49.996090091373816 0.0
20.008530539113412 59.99507302235321 0.0
20.013237077172203 69.99320603173578 0.0
29.97994171873376 9.987026405852163 0.0
29.986860226689046 19.98890800953011 0.0
29.99350605459483 29.99004955054476 0.0
30.000000000047027 39.99042530146481 0.0
30.00649394549925 49.99004955054547 0.0
30.013139773405094 59.98890800953024 0.0
30.02005828136048 69.98702640585171 0.0
39.97324292471498 9.978716947742338 0.0
39.9823330258015 19.980572382527164 0.0
39.99122591219822 29.98170280704294 0.0
40.00000000006112 39.98208344703161 0.0
40.00877408792406 49.98170280704388 0.0
40.01766697432086 59.980572382527285 0.0
40.026757075407495 69.97871694774167 0.0
49.96664157936663 9.968225505284169 0.0
49.9778972656088 19.970043035579145 0.0
49.98899435222211 29.9711453442228 0.0
50.00000000007585 39.9715151468304 0.0
50.01100564792961 49.971145344223935 0.0
50.022102734543004 59.970043035579245 0.0
50.03335842078534 69.96822550528326 0.0
59.960129128277934 9.955549674351932 0.0
59.97354031368724 19.95733506715053 0.0
59.986808612925536 29.958411733445132 0.0
60.0000000000936 39.958771946211314 0.0
60.01319138726171 49.958411733446454 0.0
60.02645968650012 59.957335067150595 0.0
60.03987087190962 69.95554967435073 0.0
69.95370383947704 9.940714303587296 0.0
69.96925111464027 19.942471687422234 0.0
69.98466094751304 29.943528271695588 0.0
70.00000000011207 39.94388099881712 0.0
70.01533905271111 49.94352827169711 0.0
70.03074888558403 59.9424716874222 0.0
70.04629616074747 69.94071430358576 0.0
79.94736560156093 9.923749038268705 0.0
79.96502387765977 19.92548081310898 0.0
79.98254623992894 29.92652058476936 0.0
80.00000000013053 39.92686736577624 0.0
80.01745376033217 49.92652058477103 0.0
80.03497612260148 59.92548081310886 0.0
80.05263439870056 69.92374903826685 0.0
89.94111456600955 9.904684200461276 0.0
89.9608561270918 19.90639140137479 0.0
89.98046204893281 29.907415905151268 0.0
90.000000000149 39.90775746019463 0.0
90.01953795136522 49.9074159051531 0.0
90.03914387320636 59.90639140137457 0.0
90.05888543428891 69.90468420045902 0.0
99.93495085554889 9.883549660358701 0.0
99.95674696732625 19.885232676368265 0.0
99.97840740725528 29.886242510270648 0.0
100.00000000016608 39.8865791317871 0.0
100.02159259307695 49.886242510272616 0.0
100.0432530330061 59.88523267636789 0.0
100.06504914478371 69.88354966035604 0.0
109.92887453410422 9.860374908255618 0.0
109.95269613122579 19.862033859266173 0.0
109.976381992376 29.863029219904842 0.0
[...]
POINT_DATA 729
SCALARS CellEntityIds float 1
LOOKUP_TABLE default
-8.347195068086728
-0.06850678972733215
0.06850678972631721
8.347195068085757
-8.124155537021219
-7.8517576270529705
-7.769420487373182
-7.698811619127888
-7.616793894130204
-7.524206435617756
-7.426058111984263
-7.325496133133785
-7.224055599780732
-7.1223493316185795
-7.020585568761147
-6.918820534738638
-6.8170631802470325
-6.7153114675675845
-6.613562617343763
-6.511814958914439
-6.41006772018614
-6.308320601854817
-6.206573506460314
-6.104826409406117
-6.003079307753374
-5.901332203081982
-5.799585096952333
-5.697837990237083
-5.59609088332321
-5.4943437763554055
-5.392596669378917
-5.290849562404436
-5.1891024554326535
-5.087355348462449
-4.985608241493074
-4.883861134524062
-4.782114027555132
-4.680366920586108
-4.578619813617052
-4.476872706648378
-4.375125599679962
-4.273378492711324
-4.17163138574247
-4.069884278773587
-3.968137171804763
-3.8663900648360046
-3.764642957867213
-3.662895850898527
-3.5611487439301053
-3.459401636961716
-3.3576545299933445
-3.255907423025035
-3.1541603160566174
-3.052413209088267
-2.950666102120035
-2.848918995151342
-2.7471718881817324
-2.645424781211288
-2.5436776742406373
-2.441930567273416
-2.340183460325023
-2.2384363534439955
-2.136689246756781
-2.0349421405418213
-1.9331950352745189
-1.8314479313528342
-1.7297008274877221
-1.6279537148649568
-1.5262065601400627
-1.4244592635914533
-1.3227115738248774
-1.2209629621230422
-1.119212595945017
-1.01746005569965
-0.9157089257873212
-0.8139791009973745
-0.7123412983344033
-0.6109991347932437
-0.5104478598938298
-0.41168401576154606
-0.31609931435977157
-0.22359673269482297
-0.12320660949480652
-0.043281710380004765
-0.013073208746639451
-0.005177271945366631
-1.5652930340781523e-13
0.0051772719451534804
0.013073208746340607
0.04328171037925507
0.12320660949325603
0.2235967326920529
0.31609931435610006
0.4116840157574415
0.5104478598893711
0.6109991347876242
0.7123412983267271
0.8139791009880091
0.9157089257766815
1.0174600556883362
1.1192125959326469
1.2209629621091567
1.3227115738097581
1.4244592635749498
1.5262065601227734
1.6279537148473051
1.7297008274688284
1.8314479313321477
1.9331950352525664
2.034942140518962
2.136689246732746
2.2384363534184137
2.3401834602983698
2.4419305672460245
2.543677674212126
2.6454247811816396
2.7471718881507763
2.8489189951190137
2.950666102086777
3.0524132090547678
3.154160316023342
3.2559074229919753
3.357654529960209
3.4594016369284217
3.561148743897174
3.6628958508660254
3.7646429578350356
3.8663900648040515
3.9681371717729066
4.06988427874192
4.171631385710911
4.27337849267969
4.375125599648383
4.476872706617186
4.578619813586146
4.68036692055519
4.782114027524233
4.883861134493488
4.985608241462929
5.087355348432661
5.189102455403219
5.290849562375612
5.39259666935097
5.4943437763282805
5.596090883297
5.697837990211989
5.799585096928418
5.901332203059177
6.0030793077316815
6.104826409385648
6.206573506441104
6.308320601836811
6.410067720169277
6.511814958898638
6.613562617328988
6.715311467553962
6.817063180234639
6.918820534727367
7.020585568750938
7.122349331609474
7.224055599772678
7.325496133126749
7.426058111978301
7.524206435612983
7.616793894126783
7.698811619125893
7.7694204873722725
7.851757627051962
8.124155537019993
6.937916374639265
4.403503039064145
2.181741541513668
4.4153569689342476e-13
-2.181741541512638
-4.403503039062476
-6.937916374638669
-6.903113866828928
-4.5186616111722016
-2.233675576126585
3.239075674343894e-13
2.2336755761274416
4.51866161117343
6.9031138668290115
-6.811088486224519
-4.608620814408292
-2.296031275790397
1.1590728377086634e-13
2.296031275790731
4.608620814408329
6.811088486223834
-6.709302650480945
-4.5375916538672
-2.284974594647351
-5.88418203051333e-14
2.2849745946470374
4.537591653866156
6.7093026504797
-6.622452545491228
-4.450508340140053
-2.239191487558724
-2.325917236589703e-13
2.239191487557927
4.450508340138499
6.6224525454892404
-6.537739725160932
-4.3740663209362065
-2.194461791885926
-4.092282068768327e-13
2.194461791884774
4.3740663209342685
6.537739725158026
-6.452314619708523
-4.307281653812377
-2.1568011031225476
-5.74207348336131e-13
2.1568011031210745
4.307281653810028
6.452314619704687
-6.365965863712373
-4.245732177009511
-2.1239956612545052
-7.272515922807088e-13
2.1239956612527244
4.245732177006735
6.365965863707668
-6.279101298093682
-4.186457871532704
-2.0935592475789813
-8.708034293647415e-13
2.093559247576888
4.186457871529469
6.279101298088153
-6.192006442124994
-4.128019986107472
-2.064076109550574
-1.014521799902468e-12
2.0640761095481457
4.128019986103737
6.192006442118645
-6.104826039335311
-4.069836959968021
-2.03491619747144
-1.1314837955467283e-12
2.0349161974687258
4.069836959963836
6.104826039328158
-6.017619076684294
-4.011710287592843
-2.0058436659916876
-1.2373713165203526e-12
2.005843665988706
4.011710287588206
6.017619076676299
-5.9304060342259595
-3.953585638842834
-1.9767850081732883
-1.3717083024999965e-12
1.9767850081699758
3.953585638837657
5.9304060342170875
-5.843192627096301
-3.8954540266301327
-1.9477231767349996
-1.5185630530822891e-12
1.947723176731333
3.8954540266244164
5.843192627086536
-5.755979868472286
-3.837317166783174
-1.9186570231160402
-1.65387148420848e-12
1.9186570231120474
3.8373171667769337
5.755979868461573
-5.668767624575965
-3.779177618113689
-1.8895882728952271
-1.7930379403452434e-12
1.8895882728908975
3.779177618106906
5.668767624564331
-5.5815556496135486
-3.721036942117327
-1.8605183228823021
-1.942362937157327e-12
1.860518322877602
3.721036942110019
5.581555649601098
-5.494343788907525
-3.6628958663362385
-1.831447907865521
-2.055605685669093e-12
1.83144790786053
3.6628958663284505
5.494343788894241
-5.4071319692562705
-3.604754674688664
-1.802377341465723
-2.1552759577048164e-12
1.8023773414604551
3.6047546746803496
5.407131969242066
-5.319920161728599
-3.546613460353312
-1.773306736876553
-2.255445830101621e-12
1.7733067368709845
3.54661346034444
5.319920161713434
-5.232708356690662
-3.4884722471789145
-1.7442361277338185
-2.350147854102147e-12
1.7442361277279979
3.488472247169566
5.232708356674549
-5.145496551613398
-3.4303310382115857
-1.7151655210507102
-2.4521495944895833e-12
1.7151655210446373
3.4303310382017527
5.145496551596338
-5.058284746137024
-3.372189832059256
-1.6860949167934387
-2.5589530494585233e-12
1.686094916787091
3.3721898320489108
5.058284746119065
-4.971072940383102
-3.3140486272790066
-1.6570243138923715
-2.6442181777497353e-12
1.6570243138857608
3.314048627268154
4.971072940364259
-4.883861134491573
-3.2559074230535496
-1.627953711592845
-2.714689584237817e-12
1.6279537115860148
3.2559074230422334
4.883861134471825
-4.796649328543604
-3.19776621901752
-1.598883109518388
-2.8672342278213137e-12
1.5988831095112301
3.197766219005736
4.7966493285230065
-4.709437522575952
-3.13962501503328
-1.569812507514063
-3.031297435285296e-12
1.5698125075065041
3.1396250150209273
4.709437522554564
-4.6222257166026965
-3.0814838110575278
-1.5407419055259526
-3.1392666244300926e-12
1.540741905518092
3.0814838110447447
4.622225716580661
-4.535013910628514
-3.0233426070801497
-1.5116713035389415
-3.2197022825641852e-12
1.511671303530862
3.0233426070670477
4.53501391060586
-4.447802104654558
-2.9652014031004397
-1.482600701550342
-3.360173250754883e-12
1.4826007015419658
2.965201403086928
4.447802104631345
-4.360590298680829
-2.9070601991192513
-1.4535300995604243
-3.511940738221142e-12
1.453530099551744
2.907060199105416
4.360590298657269
-4.2733784927073195
-2.8489189951373506
-1.424459497569727
-3.5715874702191286e-12
1.424459497560921
2.848918995123381
4.273378492683512
-4.1861666867339595
-2.7907777911551794
-1.3953888955786973
-3.62218588456642e-12
1.395388895569866
2.7907777911411236
4.186166686709826
-4.098954880760613
-2.732636587172925
-1.3663182935875584
-3.6448899454200046e-12
1.3663182935787566
2.7326365871587974
4.098954880736192
-4.011743074787223
-2.6744953831907665
-1.3372476915965144
-3.674754944782421e-12
1.3372476915876108
2.6744953831764926
4.011743074762718
-3.924531268813762
-2.6163541792086202
-1.3081770896055458
-3.7248537587686315e-12
1.3081770895964124
2.616354179194151
3.9245312687892477
-3.8373194628405196
-2.5582129752264304
-1.279106487614479
-3.784694779795927e-12
1.2791064876051812
2.5582129752118536
3.8373194628158593
-3.750107656867502
-2.5000717712442286
-1.2500358856233118
-3.7947145425931694e-12
1.2500358856140457
2.5000717712296407
3.750107656842596
-3.662895850894391
-2.4419305672620784
-1.220965283632227
-3.793770853022238e-12
1.2209652836229896
2.4419305672474123
3.6628958508693517
-3.5756840449211875
-2.3837893632800182
-1.1918946816412055
-3.843564355676676e-12
1.191894681631912
2.3837893632651928
3.5756840448960334
-3.4884722389479474
-2.3256481592979847
-1.1628240796501437
-3.824801586560511e-12
1.1628240796408458
2.32564815928309
3.488472238922692
-3.4012604329746488
-2.2675069553158913
-1.1337534776591869
-3.841649220959198e-12
1.1337534776497593
2.2675069553009384
3.401260432949353
-3.314048627001393
-2.2093657513336624
-1.1046828756680964
-3.82474607540928e-12
1.1046828756586906
2.2093657513187077
3.3140486269760427
-3.226836821028245
-2.1512245473515135
-1.075612273676959
-3.841427176354273e-12
1.0756122736676248
2.151224547336426
3.2268368210025615
-3.139625015055108
-2.093083343369444
-1.0465416716859244
-3.906763801353463e-12
1.0465416716764886
2.093083343354105
3.139625015029047
-3.05241320908202
-2.034942139387306
-1.017471069694812
-3.791106317763138e-12
1.0174710696854452
2.0349421393719433
3.052413209055768
-2.9652014031089964
-1.9768009354051626
-0.9884004677037319
-3.68473307421624e-12
0.988400467694577
1.9768009353900275
2.965201403082685
-2.877989597135984
-1.9186597314230682
-0.9593298657127199
-3.70314889863721e-12
0.9593298657036518
1.9186597314082126
2.877989597109926
-2.7907777911630975
-1.8605185274411267
-0.9302592637217815
-3.756148170275253e-12
0.9302592637125733
1.860518527426173
2.7907777911370655
-2.703565985190311
-1.8023773234593223
-0.9011886617307923
-3.663805370202056e-12
0.901188661721603
1.802377323444297
2.7035659851641736
-2.616354179217449
-1.7442361194774758
-0.8721180597398344
-3.610070575810198e-12
0.8721180597306697
1.744236119462542
2.6163541791913203
-2.5291423732446003
-1.6860949154957459
-0.8430474577491884
-3.6932124025668145e-12
0.8430474577398442
1.6860949154807807
2.529142373218657
-2.4419305672717426
-1.6279537115143101
-0.813976855758717
-3.688188643380386e-12
0.8139768557495155
1.627953711499551
2.4419305672463327
-2.35471876129861
-1.5698125075332432
-0.7849062537685413
-3.709046958455531e-12
0.7849062537595708
1.5698125075188605
2.35471876127401
-2.2675069553253766
-1.511671303552778
-0.7558356517786589
-3.629443967589907e-12
0.7558356517699139
1.5116713035387583
2.2675069553016485
-2.180295149352469
-1.4535300995724547
-0.7267650497880267
-3.403125004020069e-12
0.7267650497796514
1.4535300995589697
2.1802951493297007
-2.0930833433813394
-1.395388895588752
-0.6976944477916254
-3.1556424140433137e-12
0.6976944477835383
1.3953888955757878
2.093083343359611
-2.0058715374168754
-1.337247691586868
-0.6686238457710284
-2.9612007290680253e-12
0.6686238457632956
1.3372476915743663
2.005871537395819
-1.9186597314710343
-1.279106487520535
-0.6395532436750511
-2.9119762157137075e-12
0.6395532436676978
1.279106487508567
1.9186597314507168
-1.8314479255693703
-1.2209652832702087
-0.6104826413821578
-2.8435170884577587e-12
0.6104826413752491
1.2209652832589217
1.831447925550131
-1.744236119754242
-1.1628240785759107
-0.5814120386569035
-2.7708391137082344e-12
0.5814120386502615
1.1628240785652415
1.744236119736014
-1.6570243140539467
-1.1046828729994393
-0.5523414351928664
-2.7687574455370623e-12
0.5523414351863671
1.1046828729894531
1.6570243140367151
-1.5698125083194134
-1.0465416661980935
-0.5232708311079235
-2.628161577256094e-12
0.5232708311015966
1.046541666188349
1.5698125083030245
-1.4826007016511908
-0.9884004594778322
-0.494200229021921
-2.5334387365738564e-12
0.4942002290157367
0.988400459468354
1.4826007016359166
-1.3953888907655223
-0.9302592613616258
-0.4651296406233282
-2.384856201409491e-12
0.4651296406175882
0.9302592613529062
1.3953888907513317
-1.3081770660496796
-0.8721181036887734
-0.43605910401983794
-1.9072451951096525e-12
0.4360591040148395
0.872118103680582
1.3081770660359346
-1.2209652037361385
-0.8139770809652689
-0.40698872234955585
-1.7949947084261453e-12
0.4069887223450328
0.8139770809577537
1.2209652037230996
-1.1337532550842437
-0.7558364298441942
-0.37791873133726417
-1.8504572874000758e-12
0.37791873133295006
0.7558364298372668
1.1337532550722202
-1.046541147313183
-0.6976966437994874
-0.34884956213973006
-1.6461901286568548e-12
0.34884956213565854
0.6976966437930806
1.0465411473022586
-0.9593288606528341
-0.6395584863169166
-0.31978168759919723
-1.5960149868377016e-12
0.3197816875951977
0.6395584863108786
0.9593288606430145
-0.8721167890207853
-0.581422284603477
-0.29071446825727687
-1.6709966743633231e-12
0.2907144682532617
0.58142228459776
0.8721167890117556
-0.7849069421859429
-0.5232844763364578
-0.26164168616954653
-1.5730680646974804e-12
0.2616416861659209
0.5232844763314056
0.7849069421776235
-0.6977062494272384
-0.46512589646220903
-0.23253800991481594
-1.5152705479248851e-12
0.23253800991156706
0.4651258964578917
0.697706249419972
-0.6105342435357655
-0.4068791316675743
-0.20332449549246023
-1.355436596295334e-12
0.20332449548942444
0.4068791316636791
0.6105342435297125
-0.5234373154585616
-0.3483515542940948
-0.17379522189352917
-1.006968813888065e-12
0.17379522189090466
0.348351554290445
0.5234373154537195
-0.4365049742854358
-0.28907755130604657
-0.14350045508564357
-8.426800923722055e-13
0.1435004550834142
0.28907755130304535
0.43650497428159196
-0.34984725812375306
-0.22813208850640304
-0.11168572506671087
-6.2065456940541e-13
0.11168572506520133
0.2281320885041596
0.3498472581203462
-0.2634027612192454
-0.1642474681906364
-0.07775798822146207
-1.0477990003421311e-13
0.07775798822081371
0.16424746818893388
0.2634027612162507
-0.17634252216967244
-0.09768860655221555
-0.043442271809566294
1.8226045672697921e-13
0.043442271809343416
0.0976886065510508
0.17634252216752777
-0.08788072924329211
-0.038523445325353775
-0.01591564556914571
-1.3489209749195652e-14
0.015915645568957852
0.03852344532475489
0.08788072924209236
