# vtk DataFile Version 2.0
mesh vtk view
ASCII
DATASET UNSTRUCTURED_GRID
POINTS 100 double
0.0 0.0 0.0
800.0 0.0 0.0
800.0 80.0 0.0
0.0 80.0 0.0
88.88888888855102 0.0 0.0
177.7777777769982 0.0 0.0
266.6666666654739 0.0 0.0
355.5555555542174 0.0 0.0
444.444444442961 0.0 0.0
533.3333333318747 0.0 0.0
622.2222222212498 0.0 0.0
711.1111111106248 0.0 0.0
800.0 8.888888888881779 0.0
800.0 17.77777777774718 0.0
800.0 26.66666666661011 0.0
800.0 35.55555555548799 0.0
800.0 44.4444444443904 0.0
800.0 53.3333333332928 0.0
800.0 62.2222222221952 0.0
800.0 71.1111111110976 0.0
711.1111111117427 80.0 0.0
622.2222222234855 80.0 0.0
533.3333333352282 80.0 0.0
444.4444444465094 80.0 0.0
355.5555555576206 80.0 0.0
266.6666666685614 80.0 0.0
177.7777777790409 80.0 0.0
88.88888888952044 80.0 0.0
0.0 71.1111111111111 0.0
0.0 62.22222222222219 0.0
0.0 53.3333333333333 0.0
0.0 44.44444444444441 0.0
0.0 35.55555555555554 0.0
0.0 26.66666666666665 0.0
0.0 17.77777777777777 0.0
0.0 8.888888888888886 0.0
88.88888888865871 8.888888888888097 0.0
88.88888888876646 17.77777777777437 0.0
88.88888888887415 26.66666666666037 0.0
88.88888888898187 35.55555555554804 0.0
88.88888888908959 44.4444444444384 0.0
88.8888888891973 53.3333333333288 0.0
88.88888888930504 62.22222222221919 0.0
88.88888888941274 71.11111111110961 0.0
177.7777777772251 8.888888888887308 0.0
177.7777777774521 17.77777777777098 0.0
177.7777777776791 26.66666666665409 0.0
177.7777777779061 35.55555555554054 0.0
177.777777778133 44.44444444443241 0.0
177.77777777836 53.3333333333243 0.0
177.777777778587 62.2222222222162 0.0
177.7777777788139 71.11111111110809 0.0
266.6666666658169 8.888888888886514 0.0
266.66666666616 17.77777777776758 0.0
266.6666666665031 26.6666666666478 0.0
266.6666666668461 35.55555555553303 0.0
266.6666666671892 44.44444444442641 0.0
266.6666666675322 53.33333333331979 0.0
266.6666666678753 62.22222222221319 0.0
266.6666666682183 71.11111111110661 0.0
355.5555555545956 8.888888888885726 0.0
355.5555555549737 17.77777777776418 0.0
355.5555555553518 26.66666666664152 0.0
355.5555555557299 35.55555555552552 0.0
355.5555555561081 44.44444444442041 0.0
355.5555555564862 53.33333333331531 0.0
355.5555555568643 62.22222222221019 0.0
355.5555555572424 71.1111111111051 0.0
444.4444444433552 8.888888888884937 0.0
444.4444444437495 17.77777777776077 0.0
444.4444444441438 26.66666666663524 0.0
444.444444444538 35.55555555551803 0.0
444.4444444449323 44.4444444444144 0.0
444.4444444453266 53.33333333331078 0.0
444.444444445721 62.2222222222072 0.0
444.4444444461151 71.1111111111036 0.0
533.3333333322473 8.888888888884148 0.0
533.3333333326198 17.77777777775738 0.0
533.3333333329924 26.66666666662896 0.0
533.3333333333651 35.55555555551052 0.0
533.3333333337378 44.4444444444084 0.0
533.3333333341104 53.33333333330629 0.0
533.3333333344831 62.2222222222042 0.0
533.3333333348556 71.11111111110212 0.0
622.2222222214983 8.88888888888336 0.0
622.2222222217466 17.77777777775398 0.0
622.2222222219951 26.66666666662266 0.0
622.2222222222435 35.55555555550301 0.0
622.222222222492 44.44444444440239 0.0
622.2222222227402 53.3333333333018 0.0
622.2222222229886 62.2222222222012 0.0
622.222222223237 71.11111111110058 0.0
711.1111111107489 8.88888888888257 0.0
711.1111111108733 17.77777777775058 0.0
711.1111111109974 26.66666666661639 0.0
711.1111111111215 35.5555555554955 0.0
711.1111111112457 44.4444444443964 0.0
711.1111111113702 53.3333333332973 0.0
711.1111111114942 62.2222222221982 0.0
711.1111111116185 71.1111111110991 0.0

CELLS 81 405
4 0 4 36 35
4 35 36 37 34
4 34 37 38 33
4 33 38 39 32
4 32 39 40 31
4 31 40 41 30
4 30 41 42 29
4 29 42 43 28
4 28 43 27 3
4 4 5 44 36
4 36 44 45 37
4 37 45 46 38
4 38 46 47 39
4 39 47 48 40
4 40 48 49 41
4 41 49 50 42
4 42 50 51 43
4 43 51 26 27
4 5 6 52 44
4 44 52 53 45
4 45 53 54 46
4 46 54 55 47
4 47 55 56 48
4 48 56 57 49
4 49 57 58 50
4 50 58 59 51
4 51 59 25 26
4 6 7 60 52
4 52 60 61 53
4 53 61 62 54
4 54 62 63 55
4 55 63 64 56
4 56 64 65 57
4 57 65 66 58
4 58 66 67 59
4 59 67 24 25
4 7 8 68 60
4 60 68 69 61
4 61 69 70 62
4 62 70 71 63
4 63 71 72 64
4 64 72 73 65
4 65 73 74 66
4 66 74 75 67
4 67 75 23 24
4 8 9 76 68
4 68 76 77 69
4 69 77 78 70
4 70 78 79 71
4 71 79 80 72
4 72 80 81 73
4 73 81 82 74
4 74 82 83 75
4 75 83 22 23
4 9 10 84 76
4 76 84 85 77
4 77 85 86 78
4 78 86 87 79
4 79 87 88 80
4 80 88 89 81
4 81 89 90 82
4 82 90 91 83
4 83 91 21 22
4 10 11 92 84
4 84 92 93 85
4 85 93 94 86
4 86 94 95 87
4 87 95 96 88
4 88 96 97 89
4 89 97 98 90
4 90 98 99 91
4 91 99 20 21
4 11 1 12 92
4 92 12 13 93
4 93 13 14 94
4 94 14 15 95
4 95 15 16 96
4 96 16 17 97
4 97 17 18 98
4 98 18 19 99
4 99 19 2 20

CELL_TYPES 81
9
9
9
9
9
9
9
9
9
9
9
9
9
9
9
9
9
9
9
9
9
9
9
9
9
9
9
9
9
9
9
9
9
9
9
9
9
9
9
9
9
9
9
9
9
9
9
9
9
9
9
9
9
9
9
9
9
9
9
9
9
9
9
9
9
9
9
9
9
9
9
9
9
9
9
9
9
9
9
9
9

CELL_DATA 81
SCALARS CellEntityIds float 1
LOOKUP_TABLE default
1.0
1.0
1.0
1.0
1.0
1.0
1.0
1.0
1.0
1.0
1.0
1.0
1.0
1.0
1.0
1.0
1.0
1.0
1.0
1.0
1.0
1.0
1.0
1.0
1.0
1.0
1.0
1.0
1.0
1.0
1.0
1.0
1.0
1.0
1.0
1.0
1.0
1.0
1.0
1.0
1.0
1.0
1.0
1.0
1.0
1.0
1.0
1.0
1.0
1.0
1.0
1.0
1.0
1.0
1.0
1.0
1.0
1.0
1.0
1.0
1.0
1.0
1.0
1.0
1.0
1.0
1.0
1.0
1.0
1.0
1.0
1.0
1.0
1.0
1.0
1.0
1.0
1.0
1.0
1.0
1.0
