# vtk DataFile Version 2.0
mesh vtk view
ASCII
DATASET UNSTRUCTURED_GRID
POINTS 9 double
0.0 0.0 0.0
5.453287873769764 0.35725568529695784 0.0
5.453287873772611 -0.10725568530275265 0.0
0.0 0.25 0.0
2.7163365992238213 0.44988868150661043 0.0
5.5 0.12499999999765055 0.0
2.7163365992436868 -0.1998886815073173 0.0
0.0 0.1250000000005149 0.0
2.653130632065999 0.12499999999982654 0.0

CELLS 4 20
4 0 4 8 7
4 7 8 6 3
4 4 1 5 8
4 8 5 2 6

CELL_TYPES 4
9
9
9
9

CELL_DATA 4
SCALARS CellEntityIds float 1
LOOKUP_TABLE default
11999999.999997752
12000000.00000224
11999999.99999841
12000000.000001585
