# vtk DataFile Version 2.0
mesh vtk view
ASCII
DATASET UNSTRUCTURED_GRID
POINTS 348 double
0.0 0.0 0
3937.910398325727 2372.9018988320804 0
8000.000000000039 4497.687700554665 0
8000.000000000049 497.4746723456053 0
12062.08960167439 2372.901898832179 0
16000.0 0.0 0
104.88555875582973 53.01664391099489 0
209.32500629988496 106.9255102455388 0
313.33781325419994 161.68765775956328 0
416.94345024080883 217.2641452089998 0
520.161387881746 273.6160313497799 0
623.0110967990456 330.7043749378352 0
725.5120476147417 388.49023472909715 0
827.6837109508691 446.9346694794977 0
929.5455574294612 505.99873794496784 0
1031.1170576725522 565.6434988814394 0
1132.4176823021778 625.8300110448437 0
1233.466901940369 686.519333191112 0
1334.2841872091647 747.6725240761764 0
1434.8890087305958 809.2506424559679 0
1535.3008371266972 871.2147470864178 0
1635.539143019504 933.5258967234572 0
1735.623397031051 996.1451501230167 0
1835.5730697833726 1059.0335660410265 0
1935.4076318985053 1122.1522032334165 0
2035.1465539984815 1185.4621204561163 0
2134.809306705339 1248.9243764650564 0
2234.4153606411114 1312.5000300161676 0
2333.9841864278333 1376.1501398653772 0
2433.5352546875415 1439.835764768617 0
2533.0880360422702 1503.5179634818141 0
2632.662001114056 1567.1577947608985 0
2732.276620524933 1630.7163173617996 0
2831.951364896938 1694.154590040444 0
2931.7057048521065 1757.4336715527622 0
3031.5591110124747 1820.5146206546817 0
3131.5310540000773 1883.3584961021331 0
3231.641004436951 1945.9263566510417 0
3331.908432945131 2008.1792610573355 0
3432.352810146657 2070.0782680769425 0
3532.993606663561 2131.5844364657873 0
3633.8502931178855 2192.658824979797 0
3734.9423401316626 2253.262492374897 0
3836.2892183269314 2313.3564974070164 0
205.12820512820636 0.9644395104321545 0
410.2564102564127 3.790666597525613 0
615.3846153846192 8.378044094975882 0
820.5128205128254 14.625934836478406 0
1025.6410256410325 22.433701655728537 0
1230.7692307692384 31.700707386421506 0
1435.897435897445 42.32631486225264 0
1641.025641025651 54.209886916916965 0
1846.1538461538573 67.25078638410935 0
2051.2820512820635 81.3483760975248 0
2256.41025641027 96.40201889085826 0
2461.538461538477 112.31107759780436 0
2666.6666666666833 128.97491505205744 0
2871.79487179489 146.29289408731216 0
3076.9230769230962 164.1643775372631 0
3282.051282051302 182.4887282356045 0
3487.179487179508 201.16530901602997 0
3692.3076923077147 220.09348271223357 0
3897.435897435921 239.17261215790796 0
4102.564102564129 258.3020601867457 0
4307.692307692334 277.38118963243795 0
4512.820512820541 296.30936332867685 0
4717.948717948747 314.9859441091535 0
4923.076923076954 333.31029480755984 0
5128.20512820516 351.1817782575877 0
5333.333333333366 368.49975729292987 0
5538.461538461572 385.16359474727847 0
5743.589743589779 401.07265345432614 0
5948.717948717986 416.12629624776594 0
6153.846153846192 430.22388596129093 0
6358.974358974398 443.264785428594 0
6564.102564102604 455.14835748336344 0
6769.230769230812 465.7739649592858 0
6974.358974359017 475.04097069004905 0
7179.487179487223 482.84873750934156 0
7384.615384615429 489.0966282508535 0
7589.743589743636 493.68400574827467 0
7794.871794871843 496.5102328352948 0
4043.771817495493 2328.224572304044 0
4149.535792041378 2283.352356528249 0
4255.202945742825 2238.286499063577 0
4360.7739023792765 2193.0282474689134 0
4466.249285730173 2147.5788493031405 0
4571.6297195749585 2101.9395521251445 0
4676.915827693077 2056.1116034938136 0
4782.108233863972 2010.0962509680376 0
4887.207561867091 1963.894742106709 0
4992.2144354818765 1917.5083244687148 0
5097.129478487776 1870.9382456129456 0
5201.9533146642325 1824.1857530982911 0
5306.68656779069 1777.2520944836415 0
5411.329861646596 1730.1385173278866 0
5515.883820011396 1682.8462691899183 0
5620.349066664536 1635.376597628631 0
5724.726225385466 1587.730750202924 0
5829.015919953634 1539.9099744716932 0
5933.2187741484895 1491.9155179938368 0
6037.335411749482 1443.7486283282533 0
6141.36645653606 1395.410553033841 0
6245.312532287673 1346.9025396694983 0
6349.174262783767 1298.2258357941198 0
6452.952271803792 1249.3816889666014 0
6556.647183127196 1200.3713467458383 0
6660.259620533422 1151.196056690725 0
6763.7902078019215 1101.8570663601565 0
6867.239568712141 1052.3556233130275 0
6970.608327043526 1002.6929751082308 0
7073.897106575526 952.8703693046622 0
7177.106531087588 902.8890534612167 0
7280.237224359157 852.7502751367915 0
7383.289810169687 802.4552818902819 0
7486.264912298622 752.0053212805819 0
7589.163154525407 701.401640866588 0
7691.985160629493 650.6454882071954 0
7794.731554390331 599.7381108613029 0
7897.402959587366 548.6807563878067 0
4039.7746182155834 2431.967433541375 0
4141.828911393418 2490.6528216747106 0
4244.06764712497 2548.969324700609 0
4346.485194675977 2606.9282040876005 0
4449.075923312178 2664.5407213042054 0
4551.834202299308 2721.8181378189506 0
4654.754400903106 2778.771715100361 0
4757.830888389309 2835.412714616963 0
4861.058034023654 2891.752397837279 0
4964.430207071878 2947.8020262298346 0
5067.941776799721 3003.572861263155 0
5171.587112472918 3059.0761644057625 0
5275.360583357208 3114.3231971261866 0
5379.256558718328 3169.325220892952 0
5483.269407822014 3224.093497174586 0
5587.393499934003 3278.6392874396115 0
5691.623204320033 3332.973853156554 0
5795.952890245842 3387.1084557939394 0
5900.376926977169 3441.0543568202897 0
6004.88968377975 3494.822817704131 0
6109.485529919326 3548.425099913985 0
6214.1588346616345 3601.8724649183746 0
6318.903967272414 3655.1761741858186 0
6423.715297017406 3708.347489184842 0
6528.587193162347 3761.3976713839647 0
6633.514024972975 3814.3379822517113 0
6738.490161715032 3867.1796832566056 0
6843.509972654252 3919.9340358671698 0
6948.567827056376 3972.612301551927 0
7053.658094187144 4025.225741779399 0
7158.775143312295 4077.7856180181047 0
7263.913343697566 4130.303191736563 0
7369.067064608705 4182.7897244032965 0
7474.2306753114435 4235.256477486826 0
7579.398545071523 4287.714712455671 0
7684.565043154683 4340.175690778357 0
7789.724538826664 4392.650673923404 0
7894.871401353202 4445.150923359333 0
8000.000000000112 4395.1181357287915 0
8000.000000000184 4292.548570902918 0
8000.000000000254 4189.979006077045 0
8000.000000000322 4087.4094412511713 0
8000.000000000387 3984.8398764252975 0
8000.000000000449 3882.270311599425 0
8000.000000000508 3779.700746773551 0
8000.000000000563 3677.131181947678 0
8000.000000000612 3574.561617121804 0
8000.000000000658 3471.992052295931 0
8000.000000000698 3369.422487470057 0
8000.000000000734 3266.8529226441833 0
8000.000000000764 3164.283357818311 0
8000.00000000079 3061.713792992437 0
8000.000000000811 2959.144228166564 0
8000.000000000828 2856.57466334069 0
8000.0000000008395 2754.0050985148164 0
8000.000000000846 2651.4355336889435 0
8000.000000000848 2548.8659688630696 0
8000.000000000845 2446.2964040371967 0
8000.000000000837 2343.7268392113233 0
8000.000000000823 2241.1572743854504 0
8000.000000000806 2138.5877095595765 0
8000.000000000785 2036.018144733703 0
8000.00000000076 1933.4485799078302 0
8000.000000000732 1830.8790150819564 0
8000.0000000007 1728.3094502560834 0
8000.000000000665 1625.7398854302098 0
8000.000000000626 1523.1703206043362 0
8000.000000000584 1420.600755778464 0
8000.000000000538 1318.031190952591 0
8000.000000000489 1215.4616261267179 0
8000.000000000437 1112.8920613008443 0
8000.00000000038 1010.3224964749713 0
8000.000000000321 907.7529316490986 0
8000.000000000258 805.1833668232255 0
8000.000000000192 702.6138019973519 0
8000.000000000122 600.0442371714785 0
8105.128598646949 4445.150923359477 0
8210.275461173556 4392.6506739236875 0
8315.434956845605 4340.175690778781 0
8420.601454928834 4287.7147124562325 0
8525.769324688981 4235.256477487524 0
8630.93293539179 4182.7897244041305 0
8736.08665630299 4130.30319173753 0
8841.224856688326 4077.7856180191966 0
8946.341905813533 4025.2257417806068 0
9051.432172944349 3972.6123015532344 0
9156.490027346514 3919.9340358685554 0
9261.509838285761 3867.17968325805 0
9366.485975027836 3814.3379822531933 0
9471.412806838474 3761.397671385466 0
9576.284702983416 3708.3474891863443 0
9681.0960327284 3655.176174187308 0
9785.841165339163 3601.872464919832 0
9890.514470081449 3548.425099915394 0
9995.110316220987 3494.8228177054716 0
10099.62307302353 3441.0543568215408 0
10204.0471097548 3387.108455795082 0
10308.376795680546 3332.973853157573 0
10412.606500066506 3278.6392874404937 0
10516.730592178428 3224.0934971753195 0
10620.743441282035 3169.3252208935323 0
10724.639416643073 3114.3231971266086 0
10828.41288752729 3059.076164406026 0
10932.058223200409 3003.572861263264 0
11035.569792928176 2947.8020262298005 0
11138.941965976333 2891.7523978371128 0
11242.169111610627 2835.412714616683 0
11345.245599096781 2778.771715099991 0
11448.165797700542 2721.8181378185163 0
11550.924076687663 2664.540721303737 0
11653.514805323863 2606.9282040871385 0
11755.932352874892 2548.969324700199 0
11858.171088606494 2490.6528216744036 0
11960.225381784418 2431.9674335412333 0
8102.597040412813 548.6807563876488 0
8205.268445609934 599.7381108609732 0
8308.014839370862 650.6454882066846 0
8410.836845475045 701.4016408658895 0
8513.735087701929 752.0053212796925 0
8616.710189830961 802.4552818891993 0
8719.762775641586 852.7502751355165 0
8822.893468913257 902.8890534597492 0
8926.102893425415 952.8703693030009 0
9029.391672957512 1002.6929751063747 0
9132.760431289 1052.355623310972 0
9236.20979219932 1101.857066357896 0
9339.740379467929 1151.1960566882512 0
9443.352816874267 1200.3713467431453 0
9547.04772819778 1249.3816889636885 0
9650.825737217912 1298.2258357909911 0
9754.687467714111 1346.9025396661616 0
9858.633543465823 1395.410553030309 0
9962.664588252492 1443.7486283245423 0
10066.781225853569 1491.915517989969 0
10170.984080048487 1539.9099744676962 0
10275.273774616702 1587.7307501988325 0
10379.650933337658 1635.3765976244847 0
10484.116179990811 1682.8462691857635 0
10588.67013835559 1730.1385173237754 0
10693.313432211447 1777.2520944796283 0
10798.046685337838 1824.1857530944296 0
10902.870521514194 1870.9382456092833 0
11007.78556451997 1917.5083244652965 0
11112.792438134618 1963.8947421035723 0
11217.891766137587 2010.0962509652172 0
11323.08417230831 2056.1116034913357 0
11428.370280426245 2101.9395521230335 0
11533.750714270847 2147.5788493014147 0
11639.226097621546 2193.028247467582 0
11744.7970542578 2238.2864990626395 0
11850.46420795906 2283.352356527689 0
11956.22818250478 2328.224572303834 0
8205.128205128252 496.5102328350332 0
8410.256410256457 493.68400574781236 0
8615.38461538466 489.096628250246 0
8820.512820512864 482.84873750863744 0
9025.641025641069 475.040970689291 0
9230.769230769272 465.7739649585106 0
9435.897435897476 455.1483574826005 0
9641.02564102568 443.2647854278649 0
9846.153846153884 430.2238859606085 0
10051.282051282087 416.12629624713674 0
10256.410256410294 401.0726534537545 0
10461.538461538494 385.1635947467695 0
10666.666666666702 368.4997572924863 0
10871.7948717949 351.1817782572134 0
11076.92307692311 333.31029480725584 0
11282.051282051309 314.9859441089221 0
11487.179487179517 296.30936332851655 0
11692.307692307717 277.3811896323477 0
11897.435897435926 258.30206018672084 0
12102.564102564123 239.17261215794457 0
12307.692307692334 220.09348271232327 0
12512.820512820532 201.16530901616522 0
12717.94871794874 182.48872823577494 0
12923.076923076938 164.16437753746064 0
13128.205128205149 146.29289408752666 0
13333.333333333347 128.9749150522811 0
13538.461538461555 112.3110775980283 0
13743.589743589755 96.40201889107637 0
13948.717948717962 81.34837609772995 0
14153.846153846162 67.25078638429655 0
14358.97435897437 54.209886917081555 0
14564.10256410257 42.32631486239219 0
14769.230769230777 31.700707386533885 0
14974.358974358975 22.43370165581382 0
15179.487179487185 14.625934836537443 0
15384.615384615383 8.378044095011862 0
15589.743589743592 3.790666597542721 0
15794.871794871791 0.9644395104367754 0
12163.710781673328 2313.3564974074116 0
12265.057659868762 2253.2624923756125 0
12366.149706882703 2192.6588249808483 0
12467.006393337193 2131.584436467185 0
12567.647189854266 2070.0782680786847 0
12668.091567055964 2008.1792610594136 0
12768.3589955643 1945.926356653441 0
12868.468946001318 1883.3584961048318 0
12968.440888989053 1820.5146206576546 0
13068.294295149535 1757.4336715559753 0
13168.048635104811 1694.154590043861 0
13267.723379476896 1630.7163173653844 0
13367.337998887833 1567.1577947646153 0
13466.91196395966 1503.5179634856236 0
13566.464745314423 1439.835764772479 0
13666.015813574133 1376.1501398692556 0
13765.584639360839 1312.500030020025 0
13865.19069329658 1248.924376468858 0
13964.853446003386 1185.4621204598277 0
14064.59236810331 1122.1522032370053 0
14164.426930218364 1059.033566044467 0
14264.376602970595 996.1451501262843 0
14364.460856982041 933.5258967265295 0
14464.699162874746 871.2147470892738 0
14565.11099127073 809.2506424585926 0
14665.715812792036 747.672524078558 0
14766.53309806071 686.5193331932411 0
14867.582317698772 625.830011046718 0
14968.882942328266 565.6434988830591 0
15070.454442571228 505.99873794633703 0
15172.316289049706 446.93466948062394 0
15274.487952385713 388.4902347299942 0
15376.9889032013 330.7043749385197 0
15479.83861211851 273.61603135027167 0
15583.05654975936 217.26414520932582 0
15686.662186745896 161.68765775975282 0
15790.674993700155 106.92551024562603 0
15895.114441244186 53.016643911017 0

CELLS 351 1053
2 0 6
2 6 7
2 7 8
2 8 9
2 9 10
2 10 11
2 11 12
2 12 13
2 13 14
2 14 15
2 15 16
2 16 17
2 17 18
2 18 19
2 19 20
2 20 21
2 21 22
2 22 23
2 23 24
2 24 25
2 25 26
2 26 27
2 27 28
2 28 29
2 29 30
2 30 31
2 31 32
2 32 33
2 33 34
2 34 35
2 35 36
2 36 37
2 37 38
2 38 39
2 39 40
2 40 41
2 41 42
2 42 43
2 43 1
2 0 44
2 44 45
2 45 46
2 46 47
2 47 48
2 48 49
2 49 50
2 50 51
2 51 52
2 52 53
2 53 54
2 54 55
2 55 56
2 56 57
2 57 58
2 58 59
2 59 60
2 60 61
2 61 62
2 62 63
2 63 64
2 64 65
2 65 66
2 66 67
2 67 68
2 68 69
2 69 70
2 70 71
2 71 72
2 72 73
2 73 74
2 74 75
2 75 76
2 76 77
2 77 78
2 78 79
2 79 80
2 80 81
2 81 3
2 1 82
2 82 83
2 83 84
2 84 85
2 85 86
2 86 87
2 87 88
2 88 89
2 89 90
2 90 91
2 91 92
2 92 93
2 93 94
2 94 95
2 95 96
2 96 97
2 97 98
2 98 99
2 99 100
2 100 101
2 101 102
2 102 103
2 103 104
2 104 105
2 105 106
2 106 107
2 107 108
2 108 109
2 109 110
2 110 111
2 111 112
2 112 113
2 113 114
2 114 115
2 115 116
2 116 117
2 117 118
2 118 119
2 119 3
2 1 120
2 120 121
2 121 122
2 122 123
2 123 124
2 124 125
2 125 126
2 126 127
2 127 128
2 128 129
2 129 130
2 130 131
2 131 132
2 132 133
2 133 134
2 134 135
2 135 136
2 136 137
2 137 138
2 138 139
2 139 140
2 140 141
2 141 142
2 142 143
2 143 144
2 144 145
2 145 146
2 146 147
2 147 148
2 148 149
2 149 150
2 150 151
2 151 152
2 152 153
2 153 154
2 154 155
2 155 156
2 156 157
2 157 2
2 2 158
2 158 159
2 159 160
2 160 161
2 161 162
2 162 163
2 163 164
2 164 165
2 165 166
2 166 167
2 167 168
2 168 169
2 169 170
2 170 171
2 171 172
2 172 173
2 173 174
2 174 175
2 175 176
2 176 177
2 177 178
2 178 179
2 179 180
2 180 181
2 181 182
2 182 183
2 183 184
2 184 185
2 185 186
2 186 187
2 187 188
2 188 189
2 189 190
2 190 191
2 191 192
2 192 193
2 193 194
2 194 195
2 195 3
2 2 196
2 196 197
2 197 198
2 198 199
2 199 200
2 200 201
2 201 202
2 202 203
2 203 204
2 204 205
2 205 206
2 206 207
2 207 208
2 208 209
2 209 210
2 210 211
2 211 212
2 212 213
2 213 214
2 214 215
2 215 216
2 216 217
2 217 218
2 218 219
2 219 220
2 220 221
2 221 222
2 222 223
2 223 224
2 224 225
2 225 226
2 226 227
2 227 228
2 228 229
2 229 230
2 230 231
2 231 232
2 232 233
2 233 4
2 3 234
2 234 235
2 235 236
2 236 237
2 237 238
2 238 239
2 239 240
2 240 241
2 241 242
2 242 243
2 243 244
2 244 245
2 245 246
2 246 247
2 247 248
2 248 249
2 249 250
2 250 251
2 251 252
2 252 253
2 253 254
2 254 255
2 255 256
2 256 257
2 257 258
2 258 259
2 259 260
2 260 261
2 261 262
2 262 263
2 263 264
2 264 265
2 265 266
2 266 267
2 267 268
2 268 269
2 269 270
2 270 271
2 271 4
2 3 272
2 272 273
2 273 274
2 274 275
2 275 276
2 276 277
2 277 278
2 278 279
2 279 280
2 280 281
2 281 282
2 282 283
2 283 284
2 284 285
2 285 286
2 286 287
2 287 288
2 288 289
2 289 290
2 290 291
2 291 292
2 292 293
2 293 294
2 294 295
2 295 296
2 296 297
2 297 298
2 298 299
2 299 300
2 300 301
2 301 302
2 302 303
2 303 304
2 304 305
2 305 306
2 306 307
2 307 308
2 308 309
2 309 5
2 4 310
2 310 311
2 311 312
2 312 313
2 313 314
2 314 315
2 315 316
2 316 317
2 317 318
2 318 319
2 319 320
2 320 321
2 321 322
2 322 323
2 323 324
2 324 325
2 325 326
2 326 327
2 327 328
2 328 329
2 329 330
2 330 331
2 331 332
2 332 333
2 333 334
2 334 335
2 335 336
2 336 337
2 337 338
2 338 339
2 339 340
2 340 341
2 341 342
2 342 343
2 343 344
2 344 345
2 345 346
2 346 347
2 347 5

CELL_TYPES 351
3
3
3
3
3
3
3
3
3
3
3
3
3
3
3
3
3
3
3
3
3
3
3
3
3
3
3
3
3
3
3
3
3
3
3
3
3
3
3
3
3
3
3
3
3
3
3
3
3
3
3
3
3
3
3
3
3
3
3
3
3
3
3
3
3
3
3
3
3
3
3
3
3
3
3
3
3
3
3
3
3
3
3
3
3
3
3
3
3
3
3
3
3
3
3
3
3
3
3
3
3
3
3
3
3
3
3
3
3
3
3
3
3
3
3
3
3
3
3
3
3
3
3
3
3
3
3
3
3
3
3
3
3
3
3
3
3
3
3
3
3
3
3
3
3
3
3
3
3
3
3
3
3
3
3
3
3
3
3
3
3
3
3
3
3
3
3
3
3
3
3
3
3
3
3
3
3
3
3
3
3
3
3
3
3
3
3
3
3
3
3
3
3
3
3
3
3
3
3
3
3
3
3
3
3
3
3
3
3
3
3
3
3
3
3
3
3
3
3
3
3
3
3
3
3
3
3
3
3
3
3
3
3
3
3
3
3
3
3
3
3
3
3
3
3
3
3
3
3
3
3
3
3
3
3
3
3
3
3
3
3
3
3
3
3
3
3
3
3
3
3
3
3
3
3
3
3
3
3
3
3
3
3
3
3
3
3
3
3
3
3
3
3
3
3
3
3
3
3
3
3
3
3
3
3
3
3
3
3
3
3
3
3
3
3
3
3
3
3
3
3
3
3
3
3
3
3
3
3
3
3
3
3
3
3
3
3
3
3
3
3
3
3
3
3
3
3
3
3
3
3

CELL_DATA 351
SCALARS CellEntityIds float 1
LOOKUP_TABLE default
9.411648458672348
9.485857290846354
9.560066123020334
9.634274955194286
9.708483787368287
9.782692619542146
9.856901451716041
9.931110283889865
10.005319116063689
10.079527948237754
10.153736780411847
10.227945612585899
10.302154444760106
10.376363276934143
10.450572109108577
10.524780941283723
10.598989773460232
10.673198605636998
10.747407437814104
10.821616269990614
10.895825102167777
10.970033934344855
11.0442427665227
11.11845159870137
11.19266043087947
11.266869263058311
11.341078095238629
11.415286927418606
11.489495759597673
11.563704591776684
11.63791342395757
11.712122256140503
11.786331088322186
11.86053992050546
11.934748752689814
12.008957584874281
12.083166417057555
12.157375249238328
12.231584081418703
-1.0184806702347102
-0.9648764244335248
-0.9112721786323357
-0.8576679328310925
-0.8040636870297906
-0.750459441228494
-0.6968551954271476
-0.6432509496256573
-0.5896467038241449
-0.5360424580226981
-0.4824382122211368
-0.42883396641939875
-0.3752297206177051
-0.32162547481603987
-0.26802122901433734
-0.21441698321220848
-0.16081273741025903
-0.1072084916079028
-0.05360424580512735
-2.0392576516314875e-12
0.05360424580113232
0.10720849160456147
0.16081273740786628
0.2144169832108922
0.2680212290137689
0.3216254748166367
0.3752297206194637
0.42883396642211125
0.48243821222447725
0.5360424580268726
0.5896467038304847
0.6432509496364469
0.6968551954419064
0.7504594412471688
0.8040636870515514
0.8576679328555872
0.9112721786600526
0.9648764244635744
1.0184806702677942
0.3549398283623759
0.3525624033504755
0.3501849783340276
0.3478075533188303
0.3454301282987444
0.34305270327774906
0.3406752782489093
0.33829785321756844
0.33592042819009293
0.33354300316602803
0.3311655781360514
0.32878815310721166
0.32641072807814453
0.3240333030497595
0.3216558780147807
0.3192784529741175
0.3169010279310669
0.3145236028876752
0.31214617784451093
0.30976875279770866
0.3073913277535212
0.3050139027118348
0.30263647767458224
0.30025905263391905
0.2978816275966665
0.29550420255884546
0.29312677751920546
0.2907493524834308
0.2883719274482246
0.2859945024085846
0.2836170773689446
0.28123965232691717
0.2788622272885277
0.27648480225116145
0.27410737721083933
0.27172995216653817
0.26935252712451074
0.266975102082597
0.26459767703659054
11.89504940791403
11.87358886015926
11.852128312407558
11.83066776465813
11.809207216907737
11.7877466691574
11.766286121407177
11.744825573655703
11.723365025905991
11.70190447815503
11.680443930404977
11.658983382652423
11.637522834899528
11.616062287146065
11.594601739392942
11.573141191643003
11.55168064389295
11.53022009614483
11.508759548394664
11.487299000644043
11.465838452900698
11.444377905158717
11.422917357413667
11.401456809666797
11.379996261920269
11.358535714172376
11.337075166426985
11.315614618678637
11.29415407093461
11.272693523193539
11.25123297545133
11.229772427711282
11.208311879969187
11.186851332223455
11.1653907844792
11.143930236735173
11.122469688989668
11.101009141246209
11.07954859350707
0.02387254226277946
0.023872542266872188
0.023872542267781682
0.023872542268691177
0.02387254227005542
0.023872542270964914
0.023872542272329156
0.023872542273693398
0.023872542274602893
0.023872542273693398
0.023872542273693398
0.023872542274148145
0.023872542273693398
0.023872542273693398
0.023872542273693398
0.023872542274148145
0.023872542274148145
0.023872542274148145
0.02387254227323865
0.023872542274602893
0.023872542273693398
0.02387254227323865
0.023872542272329156
0.023872542270964914
0.02387254227141966
0.023872542270964914
0.023872542270964914
0.023872542270510166
0.02387254226960067
0.023872542270510166
0.023872542269145924
0.023872542270510166
0.02387254226960067
0.023872542269145924
0.02387254226960067
0.023872542270510166
0.02387254227005542
0.023872542270964914
0.023872542268691177
11.07954859351048
11.101009141251893
11.122469688993306
11.143930236736423
11.165390784479655
11.186851332227889
11.208311879975895
11.229772427727767
11.251232975477706
11.272693523228781
11.294154070973946
11.315614618720815
11.33707516646166
11.35853571420887
11.379996261953238
11.40145680970113
11.422917357447432
11.444377905193846
11.465838452940716
11.487299000683379
11.508759548427179
11.530220096171433
11.551680643915802
11.573141191660966
11.594601739404311
11.616062287147884
11.637522834893844
11.658983382638326
11.680443930380875
11.701904478121378
11.723365025864382
11.744825573605567
11.766286121346809
11.787746669086403
11.809207216823381
11.830667764562293
11.852128312296486
11.873588860025222
11.89504940775248
0.2645976770759262
0.2669751021104503
0.2693525271449744
0.27172995218563756
0.2741073772223217
0.2764848022577553
0.2788622272945531
0.2812396523352163
0.2836170773759932
0.2859945024198396
0.288371927461867
0.2907493525035534
0.29312677754001015
0.2955042025706689
0.2978816275989402
0.3002590526282347
0.30263647765877977
0.3050139026893248
0.30739132772259836
0.30976875275700877
0.3121461777897139
0.31452360282264635
0.3169010278539872
0.3192784528852144
0.32165587791826056
0.3240333029525573
0.32641072799003723
0.32878815302535713
0.33116557806306446
0.3335430031023634
0.3359204281392749
0.3382978531765275
0.3406752782159401
0.3430527032564896
0.34543012829760755
0.34780755333974867
0.3501849783815487
0.3525624034223256
0.3549398284628751
1.0184806702260119
0.9648764244276637
0.9112721786266889
0.8576679328259256
0.8040636870249096
0.7504594412239349
0.6968551954228346
0.643250949621919
0.5896467038202164
0.5360424580186631
0.4824382122166666
0.4288339664144054
0.3752297206121664
0.3216254748098333
0.26802122900726033
0.214416983205167
0.16081273740305946
0.10720849160041546
0.05360424579795087
-4.2579273440424e-12
-0.05360424580640988
-0.10720849160864354
-0.16081273741079904
-0.21441698321290836
-0.268021229015039
-0.32162547481710924
-0.3752297206192292
-0.4288339664213776
-0.48243821222347627
-0.5360424580256433
-0.5896467038278352
-0.6432509496299357
-0.6968551954321054
-0.7504594412342671
-0.8040636870364097
-0.857667932838555
-0.9112721786406897
-0.9648764244428154
-1.0184806702449445
12.231584081360268
12.157375249191432
12.083166417026064
12.00895758485882
11.934748752691121
11.860539920520239
11.7863310883493
11.712122256178873
11.637913424008559
11.5637045918362
11.489495759659974
11.415286927481304
11.341078095303544
11.266869263126011
11.192660430946034
11.11845159876583
11.044242766586649
10.970033934405762
10.895825102224023
10.821616270040693
10.747407437857674
10.67319860567693
10.598989773495845
10.524780941313367
10.450572109130718
10.376363276949348
10.302154444766302
10.22794561258334
10.153736780402355
10.079527948221212
10.005319116038663
9.931110283856114
9.85690145167473
9.78269261949201
9.70848378730932
9.634274955128191
9.560066122947088
9.485857290764262
9.411648458581436
