# vtk DataFile Version 2.0
mesh vtk view
ASCII
DATASET UNSTRUCTURED_GRID
POINTS 24321 double
0.0 -30.38630523358457 0
200.0 0.0 0
191.35075471007752 112.04382788941508 0
0.0 78.97912485218001 0
1.0775598689638086 -30.385902945295843 0
2.1551258113774567 -30.38308836761212 0
3.2326870270493107 -30.378110626974728 0
4.310204139008851 -30.371024294738714 0
5.387647560493607 -30.361853076896914 0
6.464993218012277 -30.350611029750407 0
7.542219524948767 -30.33730823490951 0
8.61930603101047 -30.32195306103641 0
9.696232858083112 -30.304553229941387 0
10.772980472100537 -30.28511636138735 0
11.849529596341998 -30.263650265432396 0
12.92586118428176 -30.240163104503313 0
14.001956417557707 -30.214663484870755 0
15.077796714459375 -30.18716050811913 0
16.153363742664233 -30.15766379893982 0
17.228639433480062 -30.126183518296568 0
18.303605996366272 -30.092730367165583 0
19.37824593316864 -30.057315583954573 0
20.452542051795582 -30.01995093751922 0
21.526477479199478 -29.98064871700914 0
22.600035673589556 -29.939421719360894 0
23.67320043583527 -29.89628323500198 0
24.745955920035225 -29.851247032167038 0
25.818286643237144 -29.804327340123248 0
26.89017749429999 -29.755538831531197 0
27.96161374189495 -29.704896604119888 0
29.032581041644754 -29.65241616182119 0
30.10306544240501 -29.5981133954853 0
31.17305339169358 -29.542004563280983 0
32.24253174027716 -29.484106270871614 0
33.311487745926726 -29.424435451447994 0
34.37990907635606 -29.363009345689907 0
35.44778381135974 -29.299845481723505 0
36.51510044416944 -29.234961655134207 0
37.581847882049274 -29.168375909091456 0
38.64801544615277 -29.100106514636085 0
39.71359287066577 -29.030171951178083 0
40.77857030126136 -28.95859088724839 0
41.84293829289386 -28.885382161544854 0
42.906687806960576 -28.810564764309376 0
43.969810207860775 -28.734157819070088 0
45.032297258982204 -28.656180564778616 0
46.09414111814642 -28.57665233837101 0
47.15533433254437 -28.49559255777605 0
48.21586983319443 -28.41302070539381 0
49.27574092895492 -28.328956312062378 0
50.33494130012342 -28.243418941530297 0
51.39346499165522 -28.156428175447754 0
52.451306406032685 -28.06800359888849 0
53.50846029581734 -27.97816478641056 0
54.564921755915876 -27.886931288663238 0
55.62068621559049 -27.79432261954375 0
56.675749430243734 -27.70035824390667 0
57.7301074730069 -27.605057565825543 0
58.78375672616049 -27.508439917405873 0
59.836693872413925 -27.410524548144735 0
60.888915886070976 -27.311330614832624 0
61.9404200241065 -27.21087717199092 0
62.99120381717849 -27.109183162835922 0
64.04126506059872 -27.0062674107603 0
65.09060180528405 -26.902148611321067 0
66.13921234870888 -26.79684532472184 0
67.18709522587868 -26.6903759687765 0
68.23424920034262 -26.58275881233989 0
69.28067325526266 -26.474011969191547 0
70.32636658455483 -26.36415339235566 0
71.3713285841174 -26.253200868841922 0
72.41555884315925 -26.141172014790193 0
73.45905713564086 -26.028084271001866 0
74.50182341183906 -25.913954898840093 0
75.54385779004498 -25.798800976480877 0
76.58516054840452 -25.682639395497088 0
77.6257321169086 -25.565486857756866 0
78.66557306953995 -25.447359872617685 0
79.70468411658206 -25.328274754398326 0
80.74306609709467 -25.208247620109034 0
81.78071997155956 -25.087294387422226 0
82.817646814699 -24.965430772864963 0
83.85384780846907 -24.84267229021507 0
84.8893242352283 -24.71903424908248 0
85.92407747108203 -24.594531753657957 0
86.95810897940171 -24.469179701611473 0
87.99142030451756 -24.342992783122593 0
89.02401306558262 -24.2159854800253 0
90.05588895060542 -24.088172065051126 0
91.0870497106476 -23.959566601152233 0
92.11749715418269 -23.830182940889127 0
93.14723314161104 -23.700034725866093 0
94.17625957992624 -23.569135386198365 0
95.2045784175268 -23.43749813999529 0
96.23219163916734 -23.30513599284355 0
97.25910126104236 -23.17206173727516 0
98.28530932599558 -23.038287952205064 0
99.3108178988472 -22.90382700232254 0
100.33562906183137 -22.768691037422723 0
101.35974491013523 -22.632891991661612 0
102.38316754753085 -22.496441582720784 0
103.40589908209094 -22.359351310866618 0
104.42794162197879 -22.221632457888923 0
105.44929727130248 -22.083296085904006 0
106.46996812602309 -21.94435303600702 0
107.48995626990599 -21.804813926757873 0
108.50926377050438 -21.664689152485323 0
109.5278926751633 -21.523988881392825 0
110.54584500703211 -21.38272305345023 0
111.56312276107307 -21.240901378053156 0
112.57972790005282 -21.09853333143358 0
113.59566235050336 -20.955628153802497 0
114.6109279986383 -20.812194846205927 0
115.62552668620978 -20.668242167073757 0
116.63946020629017 -20.523778628440567 0
117.65273029896285 -20.37881249181565 0
118.6653386469045 -20.23335176367906 0
119.67728687084114 -20.08740419057755 0
120.6885765248589 -19.940977253794802 0
121.69920909154925 -19.794078163565203 0
122.70918597696733 -19.646713852801785 0
123.71850850538067 -19.49889097030427 0
124.72717791378375 -19.350615873411208 0
125.73519534615272 -19.201894620057534 0
126.7425618474121 -19.05273296019522 0
127.74927835708347 -18.90313632653136 0
128.75534570258384 -18.75310982453412 0
129.76076459213857 -18.60265822165184 0
130.76553560727135 -18.451785935687205 0
131.7696591948293 -18.300497022260892 0
132.7731356584993 -18.14879516129443 0
133.77596514976588 -17.996683642435173 0
134.77814765825758 -17.844165349338077 0
135.7796830014235 -17.69124274271109 0
136.78057081347535 -17.537917842021404 0
137.78081053352446 -17.38419220574942 0
138.78040139283598 -17.230066910065545 0
139.7793424011143 -17.07554252579176 0
140.77763233172422 -16.920619093495567 0
141.7752697057429 -16.765296096546606 0
142.77225277472496 -16.609572431948635 0
143.76857950205095 -16.453446378737997 0
144.76424754271358 -16.296915563716208 0
145.7592542213796 -16.139976924257763 0
146.75359650854614 -15.98262666790371 0
147.74727099458806 -15.82486022841747 0
148.74027386146764 -15.666672217940068 0
149.73260085184998 -15.50805637483733 0
150.72424723533436 -15.349005506781323 0
151.71520777147387 -15.18951142854862 0
152.70547666921317 -15.029564893952413 0
153.69504754232324 -14.869155521247865 0
154.6839133603558 -14.70827171126093 0
155.67206639457154 -14.546900557388243 0
156.65949815822034 -14.385027746496228 0
157.64619934045965 -14.222637449608445 0
158.63215973309315 -14.059712201108274 0
159.61736814918643 -13.896232764993545 0
160.60181233247206 -13.732177986497373 0
161.585478856284 -13.567524627125081 0
162.56835301055855 -13.402247180847239 0
163.55041867519765 -13.236317668817964 0
164.53165817780254 -13.069705409547671 0
165.51205213344193 -12.90237676093138 0
166.49157926370492 -12.734294829899932 0
167.47021619178997 -12.565419144695067 0
168.4479372097759 -12.395705283841114 0
169.42471401348408 -12.2251044547522 0
170.40051539943906 -12.053563013527418 0
171.37530691732388 -11.881021915774333 0
172.34905046995397 -11.707416086183633 0
173.32170385108296 -11.532673691934617 0
174.29322020921407 -11.356715301696166 0
175.26354742289143 -11.179452907800053 0
176.2326273695221 -11.000788783834526 0
177.20039506540067 -10.820614143073557 0
178.1667776489663 -10.638807554324677 0
179.13169317199072 -10.455233060259856 0
180.09504915378463 -10.269737928132306 0
181.05674084078674 -10.082149942620237 0
182.01664909688506 -9.892274123439197 0
182.9746378268089 -9.699888713503809 0
183.93055080342828 -9.504740232640664 0
184.88420772609504 -9.30653732091894 0
185.83539927562708 -9.10494299505227 0
186.78388084344826 -8.899564796215254 0
187.72936448388626 -8.68994209445572 0
188.67150844698926 -8.475529495381569 0
189.60990335596875 -8.255674805218893 0
190.54405363062597 -8.029589241869433 0
191.47335200065024 -7.796306341631265 0
192.39704365800725 -7.554623960881706 0
193.31417427215104 -7.303020275514143 0
194.22351167980494 -7.039528534038808 0
195.1234221961277 -6.761544165574032 0
196.01166363181852 -6.465516902541477 0
196.88501468411536 -6.146439699297722 0
197.73855973698983 -5.796962264149992 0
198.56419580873472 -5.405770652407868 0
199.3472531802868 -4.954402046889262 0
200.05813555227726 -4.41015600980588 0
200.62897418781952 -3.7058040786961253 0
200.87151536098122 -2.644084998299074 0
201.78427006301936 -1.0877106713089 0
202.27498509656397 -1.0512786925809996 0
202.5227652134073 -0.6450574744047928 0
202.66922481263475 -0.06432251943765444 0
202.75687821306457 0.6137115473694461 0
202.80588750721583 1.3523454175778848 0
202.82778652357774 2.13202257367443 0
202.82977698953417 2.941333783793228 0
202.81660982732305 3.773099593328764 0
202.79155604914635 4.622511843662946 0
202.7569510071433 5.486185350602514 0
202.71451535266718 6.361640551574931 0
202.66555182190976 7.247003400424372 0
202.61107008690604 8.1408214742404 0
202.55186851289056 9.041945815475241 0
202.48858929385915 9.949451903132461 0
202.4217566547059 10.862584991442072 0
202.35180397946752 11.780721226879578 0
202.27909350673136 12.703339327126233 0
202.2039309146591 13.629999532463707 0
202.12657631434112 14.560327686606659 0
202.04725266805605 15.494003011264624 0
201.96615232774883 16.43074858908705 0
201.88344217881783 17.370323864413294 0
201.79926773381095 18.312518668855496 0
201.7137564248891 19.257148414016786 0
201.62702027748819 20.204050187981384 0
201.53915810075594 21.153079559090447 0
201.45025729678804 22.104107938638307 0
201.36039536632535 23.05702038921748 0
201.26964117065856 24.01171379135141 0
201.17805599615556 24.968095300401508 0
201.08569445779725 25.926081040334296 0
200.9926052704897 26.885594992057605 0
200.89883191107384 27.846568042587172 0
200.80441318943312 28.80893716793545 0
200.70938374357084 29.772644727796752 0
200.6137744707568 30.737637854182655 0
200.51761290464594 31.70386791939643 0
200.4209235465227 32.67129007131669 0
200.32372815741937 33.639862826033855 0
200.22604601672487 34.60954770955737 0
200.12789415197886 35.58030894167224 0
200.02928754379695 36.55211315613409 0
199.9302393092557 37.524929152303706 0
199.83076086655913 38.498727674074 0
[...]
CELL_DATA 48000
SCALARS CellEntityIds float 1
LOOKUP_TABLE default
0.020366265538308448
0.058976413755597396
0.08986234770439278
0.09635268976965118
0.1422799129018229
0.1567278360095264
0.1968889655141085
0.20756831274498166
0.25084545137558223
0.2527063641893643
0.30161072910571207
0.29339112071445805
0.3480591951347254
0.33000212729462686
0.3897895521277193
0.36262625587113556
0.42672430711165943
0.39126240229758913
0.45892239145737546
0.4158891118747187
0.4864917153443812
0.4364808507723985
0.5095472091205666
0.453005920480241
0.5281898867760381
0.46541821524853366
0.5424956376591585
0.47364670175520157
0.5525082710886132
0.47758309228291135
0.5582339647412171
0.4770665315465146
0.559635449369574
0.4718627764264484
0.5566247566142847
0.461633352933152
0.5490535249925962
0.44588621219011154
0.5366999713135299
0.4238904995193209
0.5192522085240179
0.39451574869368594
0.4962903319484125
0.3558917800595502
0.4672811279830573
0.3045634603478195
0.4316467547537607
0.23281581508222451
0.3891791802702154
0.12350515448568126
0.3420631698589718
0.20694168472384544
0.30337220674774373
0.3100394183714279
0.3075325386992375
0.39399018548547926
0.36072995849298667
0.46852954763121923
0.43066795822546444
0.5374621668090789
0.5018993830965898
0.6026601653432645
0.5710426631247181
0.6651851657231143
0.6377303397839622
0.7256972916797323
0.7022143250758826
0.7846344779015356
0.7648269326355605
0.842301653775176
0.8258638155846176
0.8989193398298208
0.8855666037767584
0.9546520221955438
0.9441286706684978
1.0096256418068958
1.0017047318679109
1.0639388550565954
1.0584195354894281
1.1176705496498847
1.1143747860363185
1.1708850149702614
1.1696544433294018
1.223635592160069
1.2243287330667942
1.275967309529284
1.2784571848273008
1.3279188237258372
1.33209094786392
1.3795238754374652
1.385274572081833
1.4308123992302964
1.4380473916896588
1.4818113829660515
1.4904446118701924
1.5325455433157142
1.5424981719028408
1.5830378646243402
1.5942374387958391
1.633310035226695
1.6456897715481429
1.6833828062001934
1.6968809860957925
1.7332762911699138
1.747835743673595
1.7830102211487302
1.798577879959759
1.8326041651722267
1.8491306884414014
1.8820777250277212
1.8995171684735994
1.9314507106372387
1.949760246353241
1.980743301345769
1.9998829760628096
2.02997619738563
2.049908725118961
2.0791707650887776
2.0998613500371364
2.1283491788770426
2.149765365231823
2.177534562685437
2.199646108648492
2.2267511332212586
2.2495299071013046
2.2760243472495665
2.299444243973354
2.325381055058354
2.349417931854241
2.37484966217254
2.3994812925584457
2.4244603014516546
2.4496663470006235
2.4742450177692916
2.500007017459895
2.5242379676320743
2.5505393448962037
2.574475636274836
2.601301724177712
2.624997075035859
2.6523351603574943
2.675844162129578
2.7036835494473945
2.7270618903399724
2.7553939876125413
2.778698685614618
2.8075171131778904
2.83080676114654
2.8601074865182166
2.8834425122026466
2.9132240136434655
2.936666957803798
2.966930420235519
2.990546236360233
3.0212957840079837
3.0451521635801346
3.076395134620159
3.10056286241826
3.132310132018489
3.1568634766072106
3.1891298360925493
3.2141469814514503
3.2469515829492748
3.2725151081903707
3.3058819861425057
3.332079401428855
3.3660380848428635
3.392962433103597
3.4275486655302383
3.4552992013301695
3.4905557894481696
3.5192387485492214
3.555216565180349
3.584946041020248
3.6217052146535456
3.652604161270498
3.690215492206498
3.7224168772546165
3.760963530841046
3.794611667460629
3.8341912083653655
3.8694433010824762
3.9101701502196895
3.9471980981418158
3.9892065172618643
4.028199028029335
4.071646768228761
4.112811849211126
4.157884641791074
4.2014525516066685
4.248369677262507
4.2945964420617635
4.343617693880232
4.392789320314411
4.444223787311678
4.496661339627713
4.550878595601282
4.606944350024722
4.664388860773398
4.724493808713683
4.785703706812031
4.850316751164668
4.9159486335631195
4.985607908185286
5.056470094087447
5.131796924459025
5.208894857171286
5.290610933658893
5.3752104667913985
5.464158717616164
5.557876556091284
5.655045717022725
5.759982602853856
5.8665339145667925
5.985477953274071
6.102768139364387
6.239518629468161
6.369102396333765
6.5290108285610575
6.672579339731975
6.863500348390888
7.02264812702581
7.256697000316889
7.432260759606152
7.729212025405045
7.919589676635216
8.313696249562181
8.510839408852602
9.064883688784462
9.245282307215007
10.080026261760038
10.185933490366684
11.542936886467716
11.447802374447477
13.833494339748892
13.282676136817113
17.931382066833375
16.299646908843016
28.205697602178134
27.65723553687165
0.08987532571292935
0.09635828795291573
0.1549681451601005
0.16118690436473515
0.20229229785117372
0.21182451546275738
0.24205845041036142
0.251691627771245
0.2769942366674348
0.2839940439193351
0.30864772878574553
0.3107749614225077
0.3377681500314081
0.33330273764714885
0.3645255038509071
0.35229401364486446
0.38878480390799025
0.36808679288647306
0.4103047277485647
0.3807737926341646
0.4288405169553723
0.3902957971021274
0.44418216966487606
0.3964994976320676
0.45616014870873955
0.3991674665481013
0.4646388595770799
0.3980277531468467
0.4695084228028477
0.3927486728580446
0.47068034029667105
0.3829224764154067
0.4680917028516713
0.36804208997304744
0.4617252315384508
0.3474855075703628
0.451660096906728
0.32057743671238165
0.4381852619047146
0.28708209525266226
0.4220396155465088
0.25001812754155733
0.4048863526696477
0.2275800229500574
0.390081242948087
0.25204737370516006
0.38322552096022383
0.3082441395203588
0.3906137032338094
0.37058361744787444
0.4148110155715858
0.43214159075065245
0.4527531269546126
0.4919012420730285
0.49926109740077707
0.5499800568353194
0.550295230099837
0.6066601778833448
0.6034752465381954
0.6621996832861723
0.6575416314154839
0.7168045032096068
0.7118516043065694
0.770633627975777
0.7660819008488281
0.8238093547684864
0.8200733335596474
0.8764263995593116
0.8737516376134803
0.9285589375250394
0.9270869316725843
0.9802658250685824
0.9800726234396335
1.0315944353544908
1.0327142498756712
1.0825834819196796
1.0850234990376495
1.1332651128050717
1.137014991574626
1.1836664787148403
1.188704559254551
1.2338109197862577
1.2401083474125834
1.283718873692078
1.2912423749531503
1.3334085782633167
1.3421223492537546
1.3828966214841207
1.3927636221927728
1.432198377095511
1.4431812229577687
1.4813283539748994
1.4933899311508
1.5303004801375182
1.543404369569447
1.5791283369837437
1.593239105251561
1.627825355643019
1.6429087526902295
1.6764049844608682
1.6924280762161807
1.724880834649594
1.7418120903839276
1.77326680961427
1.791076158173535
1.8215772222997177
1.84023608747947
1.8698269040917161
1.889308226635733
1.9180313081582774
1.9383095599283295
1.96620660964526
1.987257804141869
2.014369804789136
2.0361715072272313
2.0625388107660867
2.0850701502317848
2.1107325679098548
2.1339742536518767
2.158971145818119
2.1829054894137543
2.207275854810434
2.231886799755907
2.2556693641686056
2.280942524322364
2.3041758286232983
2.3300985369226277
2.3528210245924024
2.379382393486306
2.4016324977820536
2.428823492918432
2.4506397238810895
2.478453252723407
2.499874284245206
2.528305301501195
2.549370058673451
2.5784156906643996
2.5991634376307466
2.6288231280487695
2.649293556575515
2.6795692364524135
2.69980255539711
2.7306988405921095
2.750735866424092
2.782260286467308
2.8021425349420084
2.8343057977735975
2.8540755767922272
2.8868918747297587
2.9065923783285053
2.9400797415808606
2.9597551448746207
2.993935850100491
3.0136314048510044
3.0485324477008877
3.068294577967438
3.1039482202963042
3.123824617362408
3.160269021946306
3.180308737350283
3.2175887055760795
3.237842240603149
3.276010071863198
3.2965294612270193
3.335645956783776
3.356484843400617
3.3966204825526147
3.4178341791977864
3.459070501918413
3.4807160340799745
3.5231472723074853
3.545283394586666
3.589018404537498
3.6117055802723566
3.6568701411789744
3.680170471386303
3.7269100328503875
3.7508871156957353
3.799370097641153
3.824088792971345
3.874510570680434
3.9000366349831497
3.9526243792914464
3.9790239237180316
4.034042516435473
4.061381222789727
4.1191405345718515
4.147482539159367
4.20834644809625
4.237752767832679
4.302150421846623
4.332676746058461
4.401116745228001
4.432810342634047
4.505898760436096
4.538794142196022
4.617257650031773
4.651370468155872
4.7360863257055295
4.771404742189473
4.863440145720763
4.89991253382056
5.000576900481228
5.038094156632067
5.149009566916603
5.187379387151885
5.310576941820537
5.349485923221516
5.487539747847726
5.526496720894889
5.6827137039078535
5.720963600715404
5.899657266916764
5.936047887847242
6.142941797449496
6.175713991192661
6.418548307573942
6.444999873801177
6.734461902817312
6.750401567091436
7.101579342505538
7.100432295400357
7.535117642580529
7.506463258776898
8.056829373232548
7.984058024823048
8.698521804196378
8.555277020585697
9.507703229753734
9.253149717432326
10.556817932289423
10.131637865058448
11.958831456326058
11.292402434975383
13.887714003756358
12.994790017960915
16.408423211661773
16.287117497742887
15.098303003931994
16.293705379650742
0.14230549656182936
0.15674456214654253
0.20229427820846357
0.21183256379747414
0.24298996313562501
0.2556229807727438
0.27520070515564315
0.28906655084433863
0.3009009123400122
0.314158086054273
0.3213053519559037
0.3324219940840113
0.33756303179921504
0.3450389409562968
0.35063155084606495
0.35289024054878315
0.36118826749205657
0.35658651086750576
0.36963361209945017
0.3564982545562574
0.3761494300994024
0.3527874190868965
0.38077914855100586
0.3454378566279026
0.38351081530620906
0.33428702024650464
0.3843579674649608
0.3190742503923664
0.3834445652554647
0.2995635670387578
0.3811075770044117
0.2759531366717662
0.37803075138026476
0.2503381984470993
0.37540326825968956
0.23110109459111094
0.37503121289444197
0.2356892666079253
0.3792121977742792
0.2691243291797232
0.39015727452740306
0.3167273270278552
0.4091114840646284
0.3682331410774409
0.43587063917160296
0.42022043051479907
0.469137784271813
0.47178390438964196
0.5072745107743456
0.522754428468101
0.5488292211520766
0.5731665435634115
0.5927091822239032
0.6231012467429247
0.6381530857430132
0.6726395861769195
0.6846471468880878
0.7218504221868325
0.7318470438697049
0.7707889074288504
0.7795205669396503
0.819498119856354
0.8275090596350482
0.868011349640316
0.8757023742586356
0.916354244616817
0.9240227610078509
0.9645466056407993
0.9724144746870741
1.0126038216597033
1.0208370077001079
1.0605379938927417
1.0692606288405764
1.1083588090992476
1.1176634008928417
1.1560742163318634
1.1660291579229558
1.2036909519881476
1.2143461137880251
1.2512149485158945
1.2626058917817515
1.2986516541873738
1.3108028394861904
1.3460062849653673
1.3589335395846458
1.3932840246029707
1.4069964575520693
1.4404901853226466
1.4549916863673231
1.4876303385897633
1.5029207612248126
1.534710423319529
1.5507865256343707
1.5817368372391034
1.5985930359811475
1.6287165158560326
1.64634549551219
1.6756570025829525
1.694050211353187
1.7225665128121572
1.7417145700442525
1.7694539942295777
1.7893470284119284
1.8163291852308567
1.8369571175134103
1.8632026729952345
1.884555458109391
1.9100859525588014
1.9321537866343044
1.9569914880466077
1.9797649910216326
2.003932777132136
2.027403156056235
2.0509244196977834
2.075083618183002
2.0979821916427737
2.122823029911406
2.145123124780986
2.1706394341427657
2.192365593769765
2.2185523489347045
2.2397294110659693
2.2665828633738396
2.2872359309688246
2.314753745414936
2.334908163876832
2.363089562711011
2.3827709020298373
2.411616817666064
2.430850858096339
2.4603640981488333
2.479176818173066
2.5093622455453466
2.527779810924124
2.558644542098376
2.5766932948307075
2.6082469197927924
2.6259533657838308
2.658208193405378
2.675598987572233
2.708570320737685
2.725672248170915
2.7593786935617106
2.7762186452037056
2.8106824633434164
2.827287404413633
2.862534906504697
2.8789318356262554
2.9149938347621562
2.9312097313701315
2.9681220570288196
2.984183814173813
3.0219879004886177
3.037922239564217
3.076665799798601
3.0924991629834935
3.1322369650018347
3.1479953802752125
3.1887901406889796
3.2044990531206707
3.24642247133291
3.262106532869398
3.3052404906266197
3.32092329874778
3.36536125621129
3.38106502946538
3.4269136555725144
3.4426588310049566
3.4900399143127787
3.5058446479533196
3.5548973447738534
3.570776891414069
3.6216603814427417
3.6376263235471678
3.6905229602444165
3.7065822475368497
3.761701312335916
3.7778550627593335
3.8354372602509947
3.851679258719189
3.9120021263905143
3.9283169388581434
3.9917013924852727
4.008061987683176
4.074880285994184
4.091245023362216
4.161930518436646
4.178239315087446
4.253298465620317
4.269467892875899
4.349495166531289
4.365412141027375
4.451108634665198
4.466622250556155
4.558819134818188
4.573730018200664
4.673418297071075
4.687464630828081
4.7958332429585235
4.80867227959658
4.9271573231609835
4.938340730288159
5.06868966480906
5.077630367171373
5.221986577310951
5.22791377531644
5.388929080117914
5.39082670213834
5.57181255043572
5.5683343528680345
5.773466950949925
5.762818600973679
5.997419530732502
5.977194124175889
6.2481164954635435
6.21506523096439
6.5312258073241765
6.48094123895761
6.854048848362813
6.780538872841999
7.226070012399714
7.121220240898707
7.659658023631573
7.512656596735531
8.170865691167588
7.967901921818748
8.780050909861444
8.505288433233025
9.511303455370292
9.152159425352975
10.386903096236775
9.953188691186517
11.400313332326858
10.989445092608126
12.382751250597286
12.3669466577625
12.448724432205443
13.228176065345501
12.007639015608282
11.947799118146772
0.19692506908016946
0.20758424665012215
0.2420433392935755
0.25168864781029143
0.27517381209933967
0.2890499517442668
0.3006256212312118
0.3171375548523655
0.3194565698034732
0.336926886622435
0.3321482917942113
0.3493791414388098
0.33928465213788517
0.35527480806022205
0.34155265185794864
0.3552075752314707
0.33966725706655054
0.3495727407985205
0.33435095166124135
0.33855131817622797
0.3263901652978964
0.32209171428694017
0.31678633779915927
0.299900822908065
0.30702402676763774
0.27152994520860246
0.2994102842627778
0.2370825118872048
0.29715632308523177
0.2018073543816082
0.3035010068384365
0.19279878779962603
0.31990064254457073
0.2307319918060747
0.34522799440523955
0.2848995965377466
0.3770196458582553
0.33953813245017406
0.4129901899748409
0.39224725775995684
0.45156704965535277
0.4431096130399495
0.4917961222201572
0.49252211499916576
0.5331223651305121
0.5408436627479605
0.5752222501236967
0.5883525895953474
0.6179018603542721
0.6352573644661299
0.6610394943367951
0.681713088864969
0.7045541096656515
0.7278352668144705
0.7483880296898093
0.7737101148882544
0.7924974203816081
0.8194020921328441
0.8368470064063827
0.8649593988529073
0.8814071150492627
0.9104180246663386
0.9261520075468789
0.9558047595906871
0.9710589265945248
1.001139457276827
1.0161075434992806
1.0464367523639886
1.0612796286096962
1.0917073747247086
1.1065588462701075
1.1369591626323776
1.1519306191125096
1.182197848893557
1.1973820309836405
1.2274276743176473
1.2429017516831726
1.272651869003274
1.288479974466489
1.3178730318341663
1.334108361673766
1.3630934313503165
1.379779996226594
1.4083152456174148
1.4254893381007274
1.4535407548850994
1.4712321854957784
1.4987724975727978
1.5170056408054846
1.5440133979898438
1.562808081604623
1.5892668723367076
1.6086391369400475
1.6345369182082303
1.6544996691841785
1.679828191780422
1.7003917617320368
1.725146076039172
1.746318712764695
1.770496742787999
1.7922850353285107
1.8158872106812503
1.8382964639559698
1.8613254011608722
1.88435996807059
1.9068201938777842
1.9304837724470225
1.952381482966098
1.9766773850140367
1.9980202353785705
2.022951632353316
2.0437485523719316
2.0693187032823426
2.0895797351562773
2.1157922009820096
2.135528355680042
2.1623872042147214
2.181610333506976
2.2091203382486317
2.2278430197456087
2.25600985621805
2.274245289037706
2.303075731767547
2.320837640650534
2.3503397639410806
2.367642309825803
2.397825695460586
2.414683390599971
2.4455593456691047
2.461986971483506
2.4935687596525975
2.5095812855032733
2.5418843752524967
2.5574968763199606
2.590539209958402
2.605766782330537
2.639569069969969
2.654426740945105
2.6890127840737597
2.703515415501485
2.7389124653782866
2.7530746476553625
2.7893138044642334
2.8031497384751036
2.840266398025136
2.8537897619804613
2.8918241177841306
2.9050479154052367
2.9440455252297038
2.9569819111593003
2.9969943386549436
3.0096544162431824
3.0507399600977267
3.0631335458198095
3.105358071099334
3.117493418749233
3.16093130778963
3.1728147842451757
3.2175500277285805
3.2291857303727984
3.2753131832317144
3.2867024870578123
3.3343293187370713
3.345470338530902
3.394717713169025
3.4056046629568835
3.4566096924660514
3.467232120345187
3.5201501425710684
3.530492013969975
3.585499259565299
3.5955378555643627
3.652834581508343
3.662539170750192
3.722353356405696
3.731683588827152
3.794275313079728
3.8031792705478678
3.8688459172624787
3.8772577393708616
3.946340214949476
3.954177196577126
4.027067390130542
4.034226419379741
4.111376196110491
4.117729365015295
4.1996614609336635
4.205050634157234
4.292371920772946
4.296601986065632
4.3900197044218405
4.392850148330996
4.493191882259136
4.494326229779323
4.60256461091671
4.601637131208992
4.718920558883339
4.715479462376655
4.843170499053227
4.836656625027142
4.976380214063844
4.9660999248851505
5.1198041914237695
5.104894850435451
5.2749279948527805
5.254314031925924
5.443521674867421
5.415858912740784
5.627707066173313
5.591312891446702
5.830042136927204
5.782809727475799
6.0536252645122
5.992922515110257
6.302220375506993
6.224780817787452
6.580397928375957
6.482227179759036
6.893671343978666
6.770030289311492
7.248571329940927
7.094182647715656
7.652512318758154
7.462329100593728
8.113092672460876
7.88440046369652
8.63593475890549
8.37353189944101
9.21872673460368
8.947027265858235
9.835036159022714
9.62415718383575
10.391674130158071
10.395997349543899
10.65687119083747
11.04278847981038
10.529057948232218
11.030500441127817
10.193168403314429
9.686209110821002
0.2508828341659394
0.25270209321111076
0.27693597004176224
0.28394847684356705
0.30080865445805005
0.3140836006255807
0.31938228571666627
0.3368602490301133
0.3320128891693704
0.35190177326008093
0.3384107959454222
0.359595094271926
0.33850875508828676
0.3603444602103792
0.33237412795926136
0.3544365216962163
0.3201231348637335
0.34199110384964365
0.3019228241946257
0.32293732410777015
0.27825947085100494
0.29706631850789056
0.2511274730914677
0.26449014724211667
0.22809538221315337
0.22835890929319988
0.2270785444362747
0.20673683574931404
0.2565426447993633
0.23025843595775275
0.3013910731410103
0.28176336116346246
0.349857757294822
0.33748975246204216
0.3981661046075966
0.3916945729229661
0.445455047054009
0.44374290421795093
0.49167205445477946
0.4939028748770779
0.5369687897611083
0.5425416369485521
0.5815302598556921
0.5899794449311926
0.6255267961375126
0.6364733807968783
0.6691026638990069
0.6822260571861642
0.7123758584387071
0.7273970315481125
0.7554411022843999
0.772112462192632
0.7983734539853204
0.8164725667641487
0.8412317066901454
0.8605572686754029
0.8840613532147501
0.9044304836238297
0.9268970963784362
0.9481434091246574
0.96976494678764
0.9917370822278564
1.012683964946253
1.0352443939691125
1.055667703123341
1.0786916944940845
1.098725395848146
1.1221000848423668
1.141862940958667
1.1654864653197927
1.1850837064966278
1.20886439221598
1.2283891931610667
1.2522447819354219
1.271779577211361
1.2956364925151729
1.3152541547105958
1.339046805877193
1.358811704568229
1.3824818293067607
1.402450785060876
1.4259468309335448
1.446169975970992
1.4694465211668664
1.4899680766573964
1.5129852898703187
1.533844268460718
1.5565674072603861
1.5777982485981785
1.6001971952007568
1.6218303414190767
1.643879174390068
1.6659415919371698
1.6876181920755307
1.710133845744915
1.7314195341802305
1.7544098187283803
1.7752890251242162
1.7987731594573402
1.8192331181317538
1.843228506674854
1.8632589784476539
1.887781543945544
1.9073745614885298