# vtk DataFile Version 2.0
mesh vtk view
ASCII
DATASET UNSTRUCTURED_GRID
POINTS 87 double
0.0 0.0 0
4134.555797677294 1249.4078040952809 0
8000.000000000001 3197.3293522093145 0
8000.000000000003 -859.7956499874614 0
11865.444202322706 1249.4078040952836 0
16000.0 0.0 0
388.13844743784364 175.57504506929823 0
789.238375092771 325.2271297044296 0
1200.5489889108599 454.45784201323625 0
1619.3194948381918 568.7687701035553 0
2042.7990988208521 673.6615020832189 0
2468.237006804931 774.6376260600496 0
2892.8824247365264 877.198730141849 0
3313.984558561731 986.8464024364304 0
3728.7926142266288 1109.0822310516237 0
800.0000000000003 -24.074278199681295 0
1600.0000000000007 -89.41874759881003 0
2400.000000000001 -185.71586039751352 0
3200.0000000000014 -302.6480687959191 0
4000.0000000000014 -429.89782499415463 0
4800.000000000003 -557.1475811923482 0
5600.000000000003 -674.0797895906281 0
6400.000000000003 -770.3769023891302 0
7200.000000000003 -835.7213717880167 0
4510.32061846217 1016.9282597922188 0
4889.355230875808 790.988298746675 0
5271.331763011351 570.9321771449473 0
5655.922342961958 356.1041511733489 0
6042.799098820804 145.84847701822866 0
6431.634158681076 -60.49058913404281 0
6822.099650635961 -263.56879109708984 0
7213.867702778633 -464.04187268456366 0
7606.610443202262 -662.5655777101244 0
4537.400224393339 1411.5999459391335 0
4933.294588123064 1587.692213755628 0
5323.486828612698 1775.1887280523024 0
5709.224885608462 1971.5936093367159 0
6091.756698856567 2174.4109781164484 0
6472.33020810322 2381.1449548990868 0
6852.193353094648 2589.299660192177 0
7232.594073577086 2796.379214503251 0
7614.7803092967815 2999.887738339808 0
7999.999999999948 2791.616851989637 0
7999.999999999895 2385.9043517699592 0
7999.999999999851 1980.1918515502819 0
7999.999999999818 1574.479351330604 0
7999.999999999799 1168.7668511109264 0
7999.999999999796 763.0543508912489 0
7999.999999999812 357.34185067157125 0
7999.999999999849 -48.370649548106485 0
7999.999999999912 -454.0831497677841 0
8385.219690703172 2999.887738339712 0
8767.405926422814 2796.3792145030584 0
9147.806646905203 2589.2996601918953 0
9527.669791896597 2381.1449548987425 0
9908.243301143233 2174.410978116074 0
10290.775114391343 1971.5936093363407 0
10676.51317138714 1775.188728051989 0
11066.705411876832 1587.692213755428 0
11462.59977560662 1411.599945939062 0
8393.389556797623 -662.5655777098883 0
8786.132297221126 -464.04187268407946 0
9177.900349363705 -263.568791096424 0
9568.365841318557 -60.49058913331805 0
9957.200901178869 145.84847701886952 0
10344.077657037806 356.1041511738199 0
10728.66823698851 570.9321771452302 0
11110.64476912413 790.9882987468046 0
11489.679381537813 1016.928259792253 0
8800.000000000004 -835.7213717876418 0
9600.000000000002 -770.3769023885 0
10400.000000000002 -674.0797895898698 0
11200.000000000002 -557.1475811915856 0
12000.000000000002 -429.8978249934833 0
12800.000000000002 -302.64806879539924 0
13600.000000000002 -185.71586039717047 0
14400.0 -89.41874759863514 0
15200.0 -24.074278199631962 0
12271.207385773363 1109.0822310516137 0
12686.01544143825 986.8464024364018 0
13107.117575263454 877.1987301418221 0
13531.76299319506 774.6376260600478 0
13957.200901179147 673.6615020832493 0
14380.680505161832 568.7687701036187 0
14799.45101108917 454.45784201330434 0
15210.76162490725 325.22712970447657 0
15611.861552562163 175.57504506931485 0

CELLS 90 270
2 0 6
2 6 7
2 7 8
2 8 9
2 9 10
2 10 11
2 11 12
2 12 13
2 13 14
2 14 1
2 0 15
2 15 16
2 16 17
2 17 18
2 18 19
2 19 20
2 20 21
2 21 22
2 22 23
2 23 3
2 1 24
2 24 25
2 25 26
2 26 27
2 27 28
2 28 29
2 29 30
2 30 31
2 31 32
2 32 3
2 1 33
2 33 34
2 34 35
2 35 36
2 36 37
2 37 38
2 38 39
2 39 40
2 40 41
2 41 2
2 2 42
2 42 43
2 43 44
2 44 45
2 45 46
2 46 47
2 47 48
2 48 49
2 49 50
2 50 3
2 2 51
2 51 52
2 52 53
2 53 54
2 54 55
2 55 56
2 56 57
2 57 58
2 58 59
2 59 4
2 3 60
2 60 61
2 61 62
2 62 63
2 63 64
2 64 65
2 65 66
2 66 67
2 67 68
2 68 4
2 3 69
2 69 70
2 70 71
2 71 72
2 72 73
2 73 74
2 74 75
2 75 76
2 76 77
2 77 5
2 4 78
2 78 79
2 79 80
2 80 81
2 81 82
2 82 83
2 83 84
2 84 85
2 85 86
2 86 5

CELL_TYPES 90
3
3
3
3
3
3
3
3
3
3
3
3
3
3
3
3
3
3
3
3
3
3
3
3
3
3
3
3
3
3
3
3
3
3
3
3
3
3
3
3
3
3
3
3
3
3
3
3
3
3
3
3
3
3
3
3
3
3
3
3
3
3
3
3
3
3
3
3
3
3
3
3
3
3
3
3
3
3
3
3
3
3
3
3
3
3
3
3
3
3

CELL_DATA 90
SCALARS CellEntityIds float 1
LOOKUP_TABLE default
-11.147924876266977
-11.575064699372547
-12.002204522477605
-12.429344345582308
-12.856484168686663
-13.283623991789383
-13.710763814891862
-14.137903637995592
-14.565043461100956
-14.992183284207627
1.0075486128315758
0.7836489210910398
0.5597492293505006
0.33584953760997127
0.1119498458694479
-0.11194984587106838
-0.3358495376115651
-0.5597492293516448
-0.7836489210912656
-1.0075486128305922
-4.974970059615885
-4.924058524420218
-4.8731469892244945
-4.822235454030931
-4.771323918840608
-4.720412383650483
-4.669500848459251
-4.618589313266796
-4.567677778072095
-4.516766242876827
-10.097815816271066
-9.904037310136033
-9.710258804002564
-9.516480297871283
-9.322701791740656
-9.12892328560946
-8.935144779475365
-8.741366273339679
-8.547587767201179
-8.35380926106194
3.9669179167382254
3.966917916737316
3.966917916736975
3.9669179167367474
3.96691791673652
3.9669179167362927
3.966917916736179
3.966917916735838
3.9669179167356106
3.966917916735042
-8.353809261062054
-8.547587767201719
-8.74136627334181
-8.935144779478037
-9.12892328561162
-9.322701791745374
-9.516480297876171
-9.710258804005804
-9.90403731013484
-10.09781581626251
-4.516766242880323
-4.5676777780704185
-4.618589313259093
-4.669500848448422
-4.720412383640621
-4.771323918836117
-4.822235454032466
-4.873146989228758
-4.9240585244258455
-4.974970059622706
-1.0075486128283981
-0.783648921088751
-0.5597492293490556
-0.33584953760933134
-0.11194984586958734
0.11194984587016643
0.33584953760994063
0.5597492293497344
0.7836489210895368
1.0075486128293483
-14.992183284205197
-14.565043461101737
-14.13790363799724
-13.710763814892886
-13.283623991789796
-12.856484168685427
-12.429344345579807
-12.002204522476042
-11.575064699372476
-11.147924876268897
