# vtk DataFile Version 2.0
mesh vtk view
ASCII
DATASET UNSTRUCTURED_GRID
POINTS 161 double
0.0 0.0 0
4000.0 0.0 0
25.0 0.0 0
50.0 0.0 0
75.00000000000001 0.0 0
100.0 0.0 0
125.0 0.0 0
150.0 0.0 0
175.0 0.0 0
200.0 0.0 0
225.0 0.0 0
250.0 0.0 0
275.0 0.0 0
300.0000000000001 0.0 0
325.0 0.0 0
350.0000000000001 0.0 0
375.0 0.0 0
400.0 0.0 0
425.0000000000001 0.0 0
450.0 0.0 0
475.0000000000001 0.0 0
500.0 0.0 0
525.0 0.0 0
550.0 0.0 0
575.0000000000001 0.0 0
600.0000000000001 0.0 0
625.0 0.0 0
650.0 0.0 0
675.0 0.0 0
700.0000000000001 0.0 0
725.0000000000001 0.0 0
750.0 0.0 0
775.0 0.0 0
800.0 0.0 0
825.0000000000001 0.0 0
850.0000000000001 0.0 0
875.0 0.0 0
900.0 0.0 0
925.0 0.0 0
950.0000000000001 0.0 0
975.0000000000001 0.0 0
1000.0 0.0 0
1025.0 0.0 0
1050.0 0.0 0
1075.0 0.0 0
1100.0 0.0 0
1125.0 0.0 0
1150.0 0.0 0
1175.0 0.0 0
1200.0 0.0 0
1225.0 0.0 0
1250.0 0.0 0
1275.0 0.0 0
1300.0 0.0 0
1325.0 0.0 0
1350.0 0.0 0
1375.0 0.0 0
1400.0 0.0 0
1425.0 0.0 0
1450.0 0.0 0
1475.0 0.0 0
1500.0 0.0 0
1525.0 0.0 0
1550.0 0.0 0
1575.0 0.0 0
1600.0 0.0 0
1625.0 0.0 0
1650.0 0.0 0
1675.0 0.0 0
1700.0 0.0 0
1725.0 0.0 0
1750.0 0.0 0
1775.0 0.0 0
1800.0 0.0 0
1825.0 0.0 0
1850.0 0.0 0
1875.0 0.0 0
1900.0 0.0 0
1925.0 0.0 0
1950.0 0.0 0
1975.0 0.0 0
2000.0 0.0 0
2025.0 0.0 0
2050.0 0.0 0
2075.0 0.0 0
2100.0 0.0 0
2125.0 0.0 0
2150.0 0.0 0
2175.0 0.0 0
2200.0 0.0 0
2225.0 0.0 0
2250.0 0.0 0
2275.0 0.0 0
2300.0 0.0 0
2325.0 0.0 0
2350.0 0.0 0
2375.0 0.0 0
2400.0 0.0 0
2425.0 0.0 0
2450.0 0.0 0
2475.0 0.0 0
2500.0 0.0 0
2525.0 0.0 0
2550.0 0.0 0
2575.0 0.0 0
2600.0 0.0 0
2625.0 0.0 0
2650.0 0.0 0
2675.0 0.0 0
2700.0 0.0 0
2725.0 0.0 0
2750.0 0.0 0
2775.0 0.0 0
2800.0 0.0 0
2825.0 0.0 0
2850.0 0.0 0
2875.0 0.0 0
2900.0 0.0 0
2925.0 0.0 0
2950.0 0.0 0
2975.0 0.0 0
3000.0 0.0 0
3025.0 0.0 0
3050.0 0.0 0
3075.0 0.0 0
3100.0 0.0 0
3125.0 0.0 0
3150.0 0.0 0
3175.0 0.0 0
3200.0 0.0 0
3225.0 0.0 0
3250.0 0.0 0
3275.0 0.0 0
3300.0 0.0 0
3325.0 0.0 0
3350.0 0.0 0
3375.0 0.0 0
3400.0 0.0 0
3425.0 0.0 0
3450.0 0.0 0
3475.0 0.0 0
3500.0 0.0 0
3525.0 0.0 0
3550.0 0.0 0
3575.0 0.0 0
3600.0 0.0 0
3625.0 0.0 0
3650.0 0.0 0
3675.0 0.0 0
3700.0 0.0 0
3725.0 0.0 0
3750.0 0.0 0
3775.0 0.0 0
3800.0 0.0 0
3825.0 0.0 0
3850.0 0.0 0
3875.0 0.0 0
3900.0 0.0 0
3925.0 0.0 0
3950.0 0.0 0
3975.0 0.0 0

CELLS 160 480
2 0 2
2 2 3
2 3 4
2 4 5
2 5 6
2 6 7
2 7 8
2 8 9
2 9 10
2 10 11
2 11 12
2 12 13
2 13 14
2 14 15
2 15 16
2 16 17
2 17 18
2 18 19
2 19 20
2 20 21
2 21 22
2 22 23
2 23 24
2 24 25
2 25 26
2 26 27
2 27 28
2 28 29
2 29 30
2 30 31
2 31 32
2 32 33
2 33 34
2 34 35
2 35 36
2 36 37
2 37 38
2 38 39
2 39 40
2 40 41
2 41 42
2 42 43
2 43 44
2 44 45
2 45 46
2 46 47
2 47 48
2 48 49
2 49 50
2 50 51
2 51 52
2 52 53
2 53 54
2 54 55
2 55 56
2 56 57
2 57 58
2 58 59
2 59 60
2 60 61
2 61 62
2 62 63
2 63 64
2 64 65
2 65 66
2 66 67
2 67 68
2 68 69
2 69 70
2 70 71
2 71 72
2 72 73
2 73 74
2 74 75
2 75 76
2 76 77
2 77 78
2 78 79
2 79 80
2 80 81
2 81 82
2 82 83
2 83 84
2 84 85
2 85 86
2 86 87
2 87 88
2 88 89
2 89 90
2 90 91
2 91 92
2 92 93
2 93 94
2 94 95
2 95 96
2 96 97
2 97 98
2 98 99
2 99 100
2 100 101
2 101 102
2 102 103
2 103 104
2 104 105
2 105 106
2 106 107
2 107 108
2 108 109
2 109 110
2 110 111
2 111 112
2 112 113
2 113 114
2 114 115
2 115 116
2 116 117
2 117 118
2 118 119
2 119 120
2 120 121
2 121 122
2 122 123
2 123 124
2 124 125
2 125 126
2 126 127
2 127 128
2 128 129
2 129 130
2 130 131
2 131 132
2 132 133
2 133 134
2 134 135
2 135 136
2 136 137
2 137 138
2 138 139
2 139 140
2 140 141
2 141 142
2 142 143
2 143 144
2 144 145
2 145 146
2 146 147
2 147 148
2 148 149
2 149 150
2 150 151
2 151 152
2 152 153
2 153 154
2 154 155
2 155 156
2 156 157
2 157 158
2 158 159
2 159 160
2 160 1

CELL_TYPES 160
3
3
3
3
3
3
3
3
3
3
3
3
3
3
3
3
3
3
3
3
3
3
3
3
3
3
3
3
3
3
3
3
3
3
3
3
3
3
3
3
3
3
3
3
3
3
3
3
3
3
3
3
3
3
3
3
3
3
3
3
3
3
3
3
3
3
3
3
3
3
3
3
3
3
3
3
3
3
3
3
3
3
3
3
3
3
3
3
3
3
3
3
3
3
3
3
3
3
3
3
3
3
3
3
3
3
3
3
3
3
3
3
3
3
3
3
3
3
3
3
3
3
3
3
3
3
3
3
3
3
3
3
3
3
3
3
3
3
3
3
3
3
3
3
3
3
3
3
3
3
3
3
3
3
3
3
3
3
3
3

CELL_DATA 160
SCALARS CellEntityIds float 1
LOOKUP_TABLE default
0.0
0.0
0.0
0.0
0.0
0.0
0.0
0.0
0.0
0.0
0.0
0.0
0.0
0.0
0.0
0.0
0.0
0.0
0.0
0.0
0.0
0.0
0.0
0.0
0.0
0.0
0.0
0.0
0.0
0.0
0.0
0.0
0.0
0.0
0.0
0.0
0.0
0.0
0.0
0.0
0.0
0.0
0.0
0.0
0.0
0.0
0.0
0.0
0.0
0.0
0.0
0.0
0.0
0.0
0.0
0.0
0.0
0.0
0.0
0.0
0.0
0.0
0.0
0.0
0.0
0.0
0.0
0.0
0.0
0.0
0.0
0.0
0.0
0.0
0.0
0.0
0.0
0.0
0.0
0.0
0.0
0.0
0.0
0.0
0.0
0.0
0.0
0.0
0.0
0.0
0.0
0.0
0.0
0.0
0.0
0.0
0.0
0.0
0.0
0.0
0.0
0.0
0.0
0.0
0.0
0.0
0.0
0.0
0.0
0.0
0.0
0.0
0.0
0.0
0.0
0.0
0.0
0.0
0.0
0.0
0.0
0.0
0.0
0.0
0.0
0.0
0.0
0.0
0.0
0.0
0.0
0.0
0.0
0.0
0.0
0.0
0.0
0.0
0.0
0.0
0.0
0.0
0.0
0.0
0.0
0.0
0.0
0.0
0.0
0.0
0.0
0.0
0.0
0.0
0.0
0.0
0.0
0.0
0.0
0.0
