# vtk DataFile Version 2.0
mesh vtk view
ASCII
DATASET UNSTRUCTURED_GRID
POINTS 45 double
0.0 0.0 0.0
199.99879958929648 0.001727295408561818 0.0007058519474094877
200.00052676331805 100.0016977103925 0.0006299985079713034
0.0 100.0 0.0
0.0 0.0 100.0
199.99947323668198 0.0016977103925027899 100.00062999850796
200.00120041070352 100.00172729540856 100.00070585194742
0.0 100.0 100.0
50.00029450351792 0.00014629533276262906 2.5369996419927485e-05
99.99931825562335 3.563101073570592e-05 5.644341508389943e-05
150.00103960495238 -0.000640684784883394 -0.00028767121283920956
200.00033720741266 49.9983107319211 -0.0006558012976831225
149.99954380157553 99.99939407857327 -0.00019854094918520077
100.00029916291378 99.99999648791787 -4.391611208884211e-05
49.999870766445895 100.00017544993062 0.0001001198805472989
0.0 50.00000000025812 0.0
50.00012923368575 0.0001754499306028341 100.00010011988056
99.9997008372498 -3.5120821054533778e-06 99.9999560838879
150.00045619850636 -0.0006059214267472617 99.99980145905083
199.99966279258734 49.9983107319211 99.99934419870232
149.99896039512953 99.99935931521512 99.99971232878715
100.00068174454023 100.00003563101075 100.0000564434151
49.999705496613714 100.00014629533275 100.00002536999641
0.0 50.00000000025812 100.0
0.0 0.0 50.0
200.00086457083566 -0.0016814181855916506 49.99934113708764
199.9991354291643 99.99831858181442 49.99934113708764
0.0 100.0 50.0
49.999919951917775 49.99981520228341 -7.192526593768907e-05
100.00018976010182 50.000015292738155 7.5650595413488e-06
149.99970839524102 50.0005958657446 0.00022960208268355938
49.999794763201905 -0.00018441020256883817 49.99992792353416
100.00048652803592 1.9396162728003082e-05 50.000005964590365
149.99925235007228 0.0005886800142639649 50.00023240474993
200.0 50.00165801792456 50.000646674593774
150.00074765000966 100.00058868001426 50.000232404749944
99.99951347212763 100.00001939616274 50.00000596459035
50.00020523692974 99.99981558979742 49.99992792353417
0.0 50.00000000025812 50.0
50.00008004821389 49.999815202283415 99.99992807473406
99.99981024006176 50.00001529273814 100.00000756505955
150.00029160484078 50.00059586574461 100.00022960208268
50.00000000006583 50.000208304274494 50.000081244580706
100.0000000000818 49.99994906984825 49.99998013576472
150.0000000000409 49.99943895808987 49.9997811775967

CELLS 16 144
8 0 8 28 15 24 31 42 38
8 24 31 42 38 4 16 39 23
8 15 28 14 3 38 42 37 27
8 38 42 37 27 23 39 22 7
8 8 9 29 28 31 32 43 42
8 31 32 43 42 16 17 40 39
8 28 29 13 14 42 43 36 37
8 42 43 36 37 39 40 21 22
8 9 10 30 29 32 33 44 43
8 32 33 44 43 17 18 41 40
8 29 30 12 13 43 44 35 36
8 43 44 35 36 40 41 20 21
8 10 1 11 30 33 25 34 44
8 33 25 34 44 18 5 19 41
8 30 11 2 12 44 34 26 35
8 44 34 26 35 41 19 6 20

CELL_TYPES 16
12
12
12
12
12
12
12
12
12
12
12
12
12
12
12
12

POINT_DATA 45
SCALARS MODE2_0.0849_Hz float 1
LOOKUP_TABLE default
0.0
8.628393957439664e-05
7.334034398594631e-05
0.0
0.0
7.334034398569789e-05
8.628393957467208e-05
0.0
1.2826167227018275e-05
2.6639040535926036e-05
4.878983859345764e-05
7.168025305509545e-05
3.048940005875272e-05
1.1759571735225399e-05
9.325882486284375e-06
0.0
9.325882486019074e-06
1.1759571734907372e-05
3.048940005859283e-05
7.168025305501584e-05
4.878983859409562e-05
2.663904053634242e-05
1.2826167227055744e-05
0.0
0.0
7.786280251822286e-05
7.78628025185172e-05
0.0
8.316332397321339e-06
7.409324567859287e-06
2.7300070408898234e-05
1.1090098701854555e-05
1.8936998664075196e-05
3.809396702902252e-05
6.920924405709452e-05
3.8093967029537436e-05
1.893699866449249e-05
1.1090098701955003e-05
0.0
8.3163323969956e-06
7.409324567917366e-06
2.7300070409147577e-05
8.695062506332384e-06
2.1259358575238833e-06
2.3419094024405443e-05

