# vtk DataFile Version 2.0
mesh vtk view
ASCII
DATASET UNSTRUCTURED_GRID
POINTS 45 double
0.0 0.0 0.0
200.00034816293223 0.00024813508432718306 0.000248135084360986
199.99965183706772 100.00024813508433 -0.0002481350842979296
0.0 100.0 0.0
0.0 0.0 100.0
199.99965183706777 -0.0002481350843272283 100.00024813508436
200.00034816293228 99.99975186491567 99.99975186491571
0.0 100.0 100.0
50.000138438582525 -0.0004822232722958629 -0.00048222327228623473
99.99998393840154 0.0009082715974375727 0.0009082715974329843
149.99977362409263 -0.0008267909431157039 -0.0008267909431278358
200.00000000000003 49.99973783258354 -3.264093540914276e-14
150.0002263759893 99.99917320905688 0.0008267909431072634
100.000016061762 100.00090827159744 -0.0009082715974412821
49.999861561549125 99.99951777672771 0.0004822232723021595
0.0 50.00000000025812 0.0
49.99986156097022 0.00048222327229585984 99.99951777672771
100.0000160608932 -0.0009082715974375696 100.00090827159744
150.0002263753606 0.0008267909431157232 99.99917320905688
199.99999999999997 50.000262167063845 99.99999999999997
149.99977362472129 100.00082679094312 100.00082679094311
99.9999839392704 99.99909172840256 99.99909172840256
50.00013843916142 100.00048222327229 100.0004822232723
0.0 50.00000000025812 100.0
0.0 0.0 50.0
200.0 2.0600404255059282e-17 49.99973783275982
200.0 100.0 50.00026216724012
0.0 100.0 50.0
50.000000000065825 50.00048560759379 -8.337111471315598e-15
100.00000000008181 49.999078515889835 3.299180039575314e-15
150.00000000004087 50.00084233798078 1.2525204131834177e-14
49.99999999977637 3.9859679431045065e-19 50.00048560744426
99.99999999964737 -8.252167974063855e-19 49.999078515848936
149.9999999997266 -8.720990181652677e-18 50.0008423380485
200.0 49.99999999982369 50.000000000000036
150.0000000003553 100.0 49.99915766195152
100.0000000005162 100.0 50.00092148415107
50.00000000035527 100.0 49.99951439255572
0.0 50.00000000025812 50.0
50.00000000006584 49.99951439270525 99.99999999999999
100.00000000008178 50.00092148419196 100.0
150.00000000004093 49.99915766188381 100.00000000000001
50.00000000006583 50.00000000014952 50.00000000000001
100.0000000000818 50.0000000000409 49.99999999999999
150.0000000000409 49.99999999993229 49.999999999999986

CELLS 16 144
8 0 8 28 15 24 31 42 38
8 24 31 42 38 4 16 39 23
8 15 28 14 3 38 42 37 27
8 38 42 37 27 23 39 22 7
8 8 9 29 28 31 32 43 42
8 31 32 43 42 16 17 40 39
8 28 29 13 14 42 43 36 37
8 42 43 36 37 39 40 21 22
8 9 10 30 29 32 33 44 43
8 32 33 44 43 17 18 41 40
8 29 30 12 13 43 44 35 36
8 43 44 35 36 40 41 20 21
8 10 1 11 30 33 25 34 44
8 33 25 34 44 18 5 19 41
8 30 11 2 12 44 34 26 35
8 44 34 26 35 41 19 6 20

CELL_TYPES 16
12
12
12
12
12
12
12
12
12
12
12
12
12
12
12
12

POINT_DATA 45
SCALARS MODE3_0.0873_Hz float 1
LOOKUP_TABLE default
0.0
1.9223838973376715e-05
1.9223838973484888e-05
0.0
0.0
1.922383897337692e-05
1.9223838973485376e-05
0.0
2.7061857419559757e-05
4.9956294200072724e-05
4.6315547575797645e-05
1.019539267257651e-05
4.631554757564534e-05
4.995629420026266e-05
2.706185741979337e-05
0.0
2.7061857419559788e-05
4.9956294200072684e-05
4.6315547575798086e-05
1.0195392672578193e-05
4.631554757564575e-05
4.995629420026258e-05
2.7061857419793274e-05
0.0
0.0
1.0195392673802076e-05
1.0195392671352456e-05
0.0
1.8884733943879858e-05
3.583549476368366e-05
3.275759077450171e-05
1.888473394353988e-05
3.583549476349411e-05
3.275759077489008e-05
1.2737737959848683e-15
3.275759077411373e-05
3.5835494763872983e-05
1.888473394421969e-05
0.0
1.888473394387971e-05
3.583549476368344e-05
3.275759077450236e-05
3.5354019295110955e-16
1.537530599435624e-16
4.804456569204287e-16

