# vtk DataFile Version 2.0
mesh vtk view
ASCII
DATASET UNSTRUCTURED_GRID
POINTS 45 double
0.0 0.0 0.0
199.99894647336393 -0.0012599970159346372 0.0033954207849911646
199.99759917859296 99.99858829610518 0.0034545908171264945
0.0 100.0 0.0
0.0 0.0 100.0
200.00240082140704 -0.001411703894827548 100.00345459081711
200.001053526636 99.99874000298406 100.00339542078501
0.0 100.0 100.0
50.00025846759512 -0.00020023976107780763 0.0003508998612528129
99.99940167485222 8.78322241583149e-05 -7.024164274183356e-06
150.00091239728616 0.0003970818983794446 -0.0012118428534484806
200.00172914167135 50.001317725648406 -0.0033628363711767036
150.00207921080684 100.0005753424257 -0.0012813695697963983
99.99863651246814 99.99988711316979 7.126202151642406e-05
50.000589007838386 99.9999492600072 0.0002925906654870616
0.0 50.00000000025812 0.0
49.99941099229327 -5.073999285424298e-05 100.00029259066555
100.00136348769543 -0.00011288683015265708 100.00007126202144
149.99792078927507 0.0005753424256728096 99.99871863043026
199.99827085832865 50.00131772564842 99.99663716362882
149.99908760279578 100.00039708189834 99.99878815714649
100.00059832531134 100.00008783222424 99.99999297583581
49.99974153253652 99.99979976023886 100.00035089986119
0.0 50.00000000025812 100.0
0.0 0.0 50.0
199.99932558517466 0.001311602595365231 49.996621464194824
200.00067441482534 100.00131160259537 49.9966214641948
0.0 100.0 50.0
49.9995895269169 50.00014415308115 -0.0003688204051423137
100.00097305685891 49.99998807086021 3.879232546572099e-05
149.9985047007322 49.999535190432404 0.0011773600285188732
50.000160096072484 0.00014385053187469647 49.99963040426775
99.99962047960732 -1.5130119081745801e-05 50.00003058539454
150.00058320932638 -0.000459204165367427 50.001191731624594
200.0 49.998706650636144 50.003316036201745
149.99941679075553 99.99954079583463 50.00119173162466
100.00037952055625 99.9999848698809 50.000030585394455
49.99983990405915 100.00014385053188 49.99963040426781
0.0 50.00000000025812 50.0
50.000410473214764 50.00014415308121 99.99963117959486
99.99902694330468 49.99998807086015 100.00003879232547
150.00149529934959 49.99953519043244 100.00117736002852
50.00000000006583 49.999837510988115 50.00041660824996
100.0000000000818 50.000039728511446 49.9998981396147
150.0000000000409 50.00043764473888 49.99887791631515

CELLS 16 144
8 0 8 28 15 24 31 42 38
8 24 31 42 38 4 16 39 23
8 15 28 14 3 38 42 37 27
8 38 42 37 27 23 39 22 7
8 8 9 29 28 31 32 43 42
8 31 32 43 42 16 17 40 39
8 28 29 13 14 42 43 36 37
8 42 43 36 37 39 40 21 22
8 9 10 30 29 32 33 44 43
8 32 33 44 43 17 18 41 40
8 29 30 12 13 43 44 35 36
8 43 44 35 36 40 41 20 21
8 10 1 11 30 33 25 34 44
8 33 25 34 44 18 5 19 41
8 30 11 2 12 44 34 26 35
8 44 34 26 35 41 19 6 20

CELL_TYPES 16
12
12
12
12
12
12
12
12
12
12
12
12
12
12
12
12

POINT_DATA 45
SCALARS MODE1_0.0849_Hz float 1
LOOKUP_TABLE default
0.0
7.334034398570556e-05
8.628393957466434e-05
0.0
0.0
8.628393957440342e-05
7.334034398593693e-05
0.0
9.325882486335333e-06
1.1759571735077363e-05
3.048940005846581e-05
7.786280251833326e-05
4.878983859417421e-05
2.663904053626758e-05
1.2826167226826696e-05
0.0
1.282616722724786e-05
2.6639040536000738e-05
4.878983859337792e-05
7.786280251840651e-05
3.048940005887753e-05
1.1759571735055399e-05
9.325882485969284e-06
0.0
0.0
7.168025305484889e-05
7.168025305526055e-05
0.0
1.1090098701783148e-05
1.8936998664295404e-05
3.809396702936924e-05
8.316332397673603e-06
7.4093245678705265e-06
2.730007040847388e-05
6.920924405709397e-05
2.7300070409569176e-05
7.409324567906248e-06
8.316332396644766e-06
0.0
1.1090098702027394e-05
1.8936998664272724e-05
3.809396702919e-05
8.695062506333245e-06
2.1259358575250717e-06
2.3419094024404243e-05

