# vtk DataFile Version 2.0
mesh vtk view
ASCII
DATASET UNSTRUCTURED_GRID
POINTS 45 double
0.0 0.0 0.0
200.00040013690116 -0.0005757651361872725 -0.00023528398246982918
199.99982441222733 99.99943409653584 -0.00020999950265710108
0.0 100.0 0.0
0.0 0.0 100.0
200.00017558777267 -0.0005659034641675965 99.99979000049734
199.99959986309884 99.99942423486381 99.99976471601752
0.0 100.0 100.0
49.99990183186252 -4.876511092087634e-05 -8.456665473309159e-06
100.00022724765537 -1.1877003578568636e-05 -1.8814471694633138e-05
149.99965346465135 0.00021356159496113128 9.58904042797365e-05
199.99988759752912 50.000563089124554 0.0002186004325610408
150.00015206661521 100.00020197380891 6.61803163950669e-05
99.999900279717 100.00000117069405 1.4638704029614032e-05
50.000043078325064 99.99994151668979 -3.337329351576629e-05
0.0 50.00000000025812 0.0
49.99995692180658 -5.848331020094468e-05 99.99996662670648
100.00009972044656 1.1706940351511256e-06 100.00001463870403
149.9998479334667 0.00020197380891575386 100.0000661803164
200.00011240247088 50.000563089124554 100.00021860043256
150.00034653543057 100.00021356159496 100.00009589040428
99.99977275250818 99.99998812299641 99.9999811855283
50.000098168269126 99.99995123488908 99.99999154333453
0.0 50.00000000025812 100.0
0.0 0.0 50.0
199.99971180972145 0.00056047272853055 50.00021962097079
200.00028819027855 100.00056047272852 50.00021962097079
0.0 100.0 50.0
50.00002668278185 50.000061599438226 2.397508864589635e-05
99.9999367467418 49.999994902475144 -2.5216865137829325e-06
150.00009720164087 49.99980137799486 -7.653402756118644e-05
50.00006841196786 6.147006752294604e-05 50.000024025488614
99.99983782351785 -6.4653875760010255e-06 49.999998011803214
150.00024921627806 -0.00019622667142132156 49.99992253175002
200.0 49.999447327123406 49.99978444180208
149.99975078380385 99.99980377332858 49.999922531750016
100.00016217664572 99.99999353461241 49.999998011803214
49.99993158816378 100.00006147006752 50.00002402548861
0.0 50.00000000025812 50.0
49.99997331734981 50.00006159943822 100.00002397508865
100.00006325342181 49.99999490247515 99.99999747831349
149.99990279844093 49.99980137799486 99.99992346597244
50.00000000006583 49.9999305654412 49.9999729184731
100.0000000000818 50.00001697677178 50.00000662141176
150.0000000000409 50.00018701387977 50.0000729408011

CELLS 16 144
8 0 8 28 15 24 31 42 38
8 24 31 42 38 4 16 39 23
8 15 28 14 3 38 42 37 27
8 38 42 37 27 23 39 22 7
8 8 9 29 28 31 32 43 42
8 31 32 43 42 16 17 40 39
8 28 29 13 14 42 43 36 37
8 42 43 36 37 39 40 21 22
8 9 10 30 29 32 33 44 43
8 32 33 44 43 17 18 41 40
8 29 30 12 13 43 44 35 36
8 43 44 35 36 40 41 20 21
8 10 1 11 30 33 25 34 44
8 33 25 34 44 18 5 19 41
8 30 11 2 12 44 34 26 35
8 44 34 26 35 41 19 6 20

CELL_TYPES 16
12
12
12
12
12
12
12
12
12
12
12
12
12
12
12
12

POINT_DATA 45
SCALARS MODE2_0.0849_Hz float 1
LOOKUP_TABLE default
0.0
8.628393957439664e-05
7.334034398594631e-05
0.0
0.0
7.334034398569789e-05
8.628393957467208e-05
0.0
1.2826167227018275e-05
2.6639040535926036e-05
4.878983859345764e-05
7.168025305509545e-05
3.048940005875272e-05
1.1759571735225399e-05
9.325882486284375e-06
0.0
9.325882486019074e-06
1.1759571734907372e-05
3.048940005859283e-05
7.168025305501584e-05
4.878983859409562e-05
2.663904053634242e-05
1.2826167227055744e-05
0.0
0.0
7.786280251822286e-05
7.78628025185172e-05
0.0
8.316332397321339e-06
7.409324567859287e-06
2.7300070408898234e-05
1.1090098701854555e-05
1.8936998664075196e-05
3.809396702902252e-05
6.920924405709452e-05
3.8093967029537436e-05
1.893699866449249e-05
1.1090098701955003e-05
0.0
8.3163323969956e-06
7.409324567917366e-06
2.7300070409147577e-05
8.695062506332384e-06
2.1259358575238833e-06
2.3419094024405443e-05

