# vtk DataFile Version 2.0
mesh vtk view
ASCII
DATASET UNSTRUCTURED_GRID
POINTS 45 double
0.0 0.0 0.0
199.99988394568925 -8.271169477572769e-05 -8.271169478699533e-05
200.00011605431075 99.99991728830523 8.271169476597655e-05
0.0 100.0 0.0
0.0 0.0 100.0
200.00011605431075 8.271169477574276e-05 99.99991728830521
199.99988394568925 100.00008271169477 100.00008271169476
0.0 100.0 100.0
49.999953853507655 0.00016074109076528764 0.00016074109076207824
100.00000535339598 -0.00030275719914585753 -0.0003027571991443281
150.00007545827128 0.00027559698103856795 0.00027559698104261197
200.0 50.000087388903744 1.0880311803047588e-14
149.99992454181063 100.00027559698104 -0.00027559698103575445
99.99999464676759 99.99969724280085 0.000302757199147094
50.00004614662399 100.00016074109077 -0.0001607410907673865
0.0 50.00000000025812 0.0
50.00004614604509 -0.00016074109076528661 100.00016074109077
99.99999464589877 0.0003027571991458565 99.99969724280085
149.99992454118194 -0.0002755969810385744 100.00027559698104
200.0 49.99991261074364 100.00000000000001
150.00007545889997 99.99972440301896 99.99972440301896
100.0000053542648 100.00030275719915 100.00030275719915
49.999953854086556 99.99983925890923 99.99983925890923
0.0 50.00000000025812 100.0
0.0 0.0 50.0
200.0 -6.866801418353095e-18 50.00008738908006
200.0 100.0 49.99991261091996
0.0 100.0 50.0
50.00000000006583 49.99983813100143 2.7790371571051988e-15
100.0000000000818 50.00030716142459 -1.0997266798584382e-15
150.0000000000409 49.9997192205828 -4.1750680439447256e-15
49.99999999977637 -1.3286559810348356e-19 49.99983813085191
99.99999999964737 2.7507226580212847e-19 50.00030716138369
149.9999999997266 2.906996727217559e-18 49.9997192206505
200.0 49.99999999982369 49.999999999999986
150.0000000003553 100.0 50.000280779349495
100.0000000005162 100.0 49.99969283861631
50.00000000035527 100.0 50.000161869148094
0.0 50.00000000025812 50.0
50.00000000006583 50.00016186929761 100.0
100.0000000000818 49.99969283865721 100.0
150.0000000000409 50.00028077928179 100.0
50.00000000006583 50.00000000014952 50.0
100.0000000000818 50.0000000000409 50.0
150.0000000000409 49.99999999993229 50.00000000000001

CELLS 16 144
8 0 8 28 15 24 31 42 38
8 24 31 42 38 4 16 39 23
8 15 28 14 3 38 42 37 27
8 38 42 37 27 23 39 22 7
8 8 9 29 28 31 32 43 42
8 31 32 43 42 16 17 40 39
8 28 29 13 14 42 43 36 37
8 42 43 36 37 39 40 21 22
8 9 10 30 29 32 33 44 43
8 32 33 44 43 17 18 41 40
8 29 30 12 13 43 44 35 36
8 43 44 35 36 40 41 20 21
8 10 1 11 30 33 25 34 44
8 33 25 34 44 18 5 19 41
8 30 11 2 12 44 34 26 35
8 44 34 26 35 41 19 6 20

CELL_TYPES 16
12
12
12
12
12
12
12
12
12
12
12
12
12
12
12
12

POINT_DATA 45
SCALARS MODE3_0.0873_Hz float 1
LOOKUP_TABLE default
0.0
1.9223838973376715e-05
1.9223838973484888e-05
0.0
0.0
1.922383897337692e-05
1.9223838973485376e-05
0.0
2.7061857419559757e-05
4.9956294200072724e-05
4.6315547575797645e-05
1.019539267257651e-05
4.631554757564534e-05
4.995629420026266e-05
2.706185741979337e-05
0.0
2.7061857419559788e-05
4.9956294200072684e-05
4.6315547575798086e-05
1.0195392672578193e-05
4.631554757564575e-05
4.995629420026258e-05
2.7061857419793274e-05
0.0
0.0
1.0195392673802076e-05
1.0195392671352456e-05
0.0
1.8884733943879858e-05
3.583549476368366e-05
3.275759077450171e-05
1.888473394353988e-05
3.583549476349411e-05
3.275759077489008e-05
1.2737737959848683e-15
3.275759077411373e-05
3.5835494763872983e-05
1.888473394421969e-05
0.0
1.888473394387971e-05
3.583549476368344e-05
3.275759077450236e-05
3.5354019295110955e-16
1.537530599435624e-16
4.804456569204287e-16

