# vtk DataFile Version 2.0
mesh vtk view
ASCII
DATASET UNSTRUCTURED_GRID
POINTS 45 double
0.0 0.0 0.0
199.9992976489093 -0.0008399980106230914 0.0022636138566607764
199.99839945239532 99.99905886407012 0.002303060544750996
0.0 100.0 0.0
0.0 0.0 100.0
200.00160054760468 -0.0009411359298850319 100.00230306054473
200.0007023510907 99.99916000198938 100.00226361385667
0.0 100.0 100.0
50.00017231165553 -0.00013349317405187176 0.00023393324083520854
99.9996011164506 5.855481610554326e-05 -4.682776182788903e-06
150.0006082647663 0.0002647212655862964 -0.0008078952356323204
200.00115276111424 50.000878483706835 -0.002241890914117802
150.0013861406563 100.00038356161714 -0.0008542463798642655
99.99909100848416 99.9999247421132 4.75080143442827e-05
50.00039267201068 99.99996617333814 0.00019506044365804104
0.0 50.00000000025812 0.0
49.999607328120966 -3.382666190282865e-05 100.0001950604437
100.00090899167941 -7.525788676843805e-05 100.00004750801429
149.9986138594256 0.0003835616171152064 99.99914575362017
199.99884723888576 50.00087848370684 99.99775810908588
149.99939173531564 100.00026472126555 99.99919210476433
100.00039888371296 100.00005855481615 99.99999531722388
49.9998276884761 99.99986650682591 100.00023393324079
0.0 50.00000000025812 100.0
0.0 0.0 50.0
199.99955039011644 0.0008744017302434872 49.997747642796554
200.00044960988356 100.00087440173024 49.99774764279654
0.0 100.0 50.0
49.99972635129988 50.000096102103946 -0.0002458802700948758
100.00064870459987 49.99999204725378 2.586155031048066e-05
149.99900313383512 49.999690126932364 0.0007849066856792487
50.00010673064045 9.590035458313096e-05 49.99975360284517
99.99974698628733 -1.00867460544972e-05 50.000020390263025
150.00038880612644 -0.0003061361102449513 50.00079448774973
200.0 49.999137767031996 50.002210690801164
149.99961119395545 99.99969386388976 50.00079448774977
100.00025301387623 99.99998991325394 50.00002039026297
49.999893269491196 100.00009590035458 49.99975360284521
0.0 50.00000000025812 50.0
50.00027364883179 50.00009610210398 99.9997541197299
99.99935129556373 49.99999204725373 100.00002586155031
150.00099686624668 49.99969012693239 100.00078490668568
50.00000000006583 49.99989167404192 50.000277738833304
100.0000000000818 50.00002648568793 49.99993209307647
150.0000000000409 50.00029176313669 49.9992519442101

CELLS 16 144
8 0 8 28 15 24 31 42 38
8 24 31 42 38 4 16 39 23
8 15 28 14 3 38 42 37 27
8 38 42 37 27 23 39 22 7
8 8 9 29 28 31 32 43 42
8 31 32 43 42 16 17 40 39
8 28 29 13 14 42 43 36 37
8 42 43 36 37 39 40 21 22
8 9 10 30 29 32 33 44 43
8 32 33 44 43 17 18 41 40
8 29 30 12 13 43 44 35 36
8 43 44 35 36 40 41 20 21
8 10 1 11 30 33 25 34 44
8 33 25 34 44 18 5 19 41
8 30 11 2 12 44 34 26 35
8 44 34 26 35 41 19 6 20

CELL_TYPES 16
12
12
12
12
12
12
12
12
12
12
12
12
12
12
12
12

POINT_DATA 45
SCALARS MODE1_0.0849_Hz float 1
LOOKUP_TABLE default
0.0
7.334034398570556e-05
8.628393957466434e-05
0.0
0.0
8.628393957440342e-05
7.334034398593693e-05
0.0
9.325882486335333e-06
1.1759571735077363e-05
3.048940005846581e-05
7.786280251833326e-05
4.878983859417421e-05
2.663904053626758e-05
1.2826167226826696e-05
0.0
1.282616722724786e-05
2.6639040536000738e-05
4.878983859337792e-05
7.786280251840651e-05
3.048940005887753e-05
1.1759571735055399e-05
9.325882485969284e-06
0.0
0.0
7.168025305484889e-05
7.168025305526055e-05
0.0
1.1090098701783148e-05
1.8936998664295404e-05
3.809396702936924e-05
8.316332397673603e-06
7.4093245678705265e-06
2.730007040847388e-05
6.920924405709397e-05
2.7300070409569176e-05
7.409324567906248e-06
8.316332396644766e-06
0.0
1.1090098702027394e-05
1.8936998664272724e-05
3.809396702919e-05
8.695062506333245e-06
2.1259358575250717e-06
2.3419094024404243e-05

