# vtk DataFile Version 2.0
mesh vtk view
ASCII
DATASET UNSTRUCTURED_GRID
POINTS 45 double
0.0 0.0 0.0
199.99919972619767 0.0011515302723745454 0.0004705679649396586
200.00035117554535 100.00113180692833 0.0004199990053142023
0.0 100.0 0.0
0.0 0.0 100.0
199.99964882445465 0.0011318069283351934 100.00041999900532
200.00080027380235 100.00115153027237 100.00047056796494
0.0 100.0 100.0
50.00019633560407 9.753022184175271e-05 1.6913330946618324e-05
99.99954550363135 2.3754007157137282e-05 3.7628943389266296e-05
150.00069306987712 -0.00042712318992226277 -0.00019178080855947308
200.00022480494178 49.99887382122196 -0.0004372008651220818
149.99969586783544 99.99959605238217 -0.00013236063279013386
100.00019944211458 99.99999765861192 -2.9277408059228078e-05
49.99991384441569 100.00011696662041 6.674658703153261e-05
0.0 50.00000000025812 0.0
50.000086155715955 0.00011696662040188941 100.00006674658704
99.99980055804899 -2.341388070302252e-06 99.99997072259193
150.00030413224644 -0.0004039476178315079 99.99986763936722
199.99977519505822 49.99887382122196 99.99956279913488
149.9993069302048 99.99957287681008 99.99980821919144
100.00045449653221 100.00002375400716 100.0000376289434
49.99980366452757 100.00009753022184 100.00001691333094
0.0 50.00000000025812 100.0
0.0 0.0 50.0
200.0005763805571 -0.0011209454570611007 49.99956075805843
199.99942361944287 99.99887905454294 49.99956075805842
0.0 100.0 50.0
49.999946634633794 49.99987680157211 -4.795017729179272e-05
100.00012650676182 50.0000101951724 5.0433730275658675e-06
149.999805596841 50.000397243807164 0.00015306805512237294
49.99986317539339 -0.00012294013504589212 49.99995194902277
100.0003243519064 1.2930775152002056e-05 50.00000397639358
149.99950156662374 0.0003924533428426433 50.00015493649995
200.0 50.001105345224275 50.00043111639585
150.0004984334582 100.00039245334284 50.00015493649996
99.99967564825715 100.00001293077516 50.000003976393565
50.00013682473825 99.99987705986496 49.99995194902278
0.0 50.00000000025812 50.0
50.00005336549787 49.999876801572114 99.99995204982271
99.99987349340178 50.00001019517239 100.00000504337302
150.0001944032408 50.00039724380717 100.00015306805513
50.00000000006583 50.00013886956617 50.000054163053804
100.0000000000818 49.99996604657913 49.99998675717649
150.0000000000409 49.99962597203734 49.999854118397806

CELLS 16 144
8 0 8 28 15 24 31 42 38
8 24 31 42 38 4 16 39 23
8 15 28 14 3 38 42 37 27
8 38 42 37 27 23 39 22 7
8 8 9 29 28 31 32 43 42
8 31 32 43 42 16 17 40 39
8 28 29 13 14 42 43 36 37
8 42 43 36 37 39 40 21 22
8 9 10 30 29 32 33 44 43
8 32 33 44 43 17 18 41 40
8 29 30 12 13 43 44 35 36
8 43 44 35 36 40 41 20 21
8 10 1 11 30 33 25 34 44
8 33 25 34 44 18 5 19 41
8 30 11 2 12 44 34 26 35
8 44 34 26 35 41 19 6 20

CELL_TYPES 16
12
12
12
12
12
12
12
12
12
12
12
12
12
12
12
12

POINT_DATA 45
SCALARS MODE2_0.0849_Hz float 1
LOOKUP_TABLE default
0.0
8.628393957439664e-05
7.334034398594631e-05
0.0
0.0
7.334034398569789e-05
8.628393957467208e-05
0.0
1.2826167227018275e-05
2.6639040535926036e-05
4.878983859345764e-05
7.168025305509545e-05
3.048940005875272e-05
1.1759571735225399e-05
9.325882486284375e-06
0.0
9.325882486019074e-06
1.1759571734907372e-05
3.048940005859283e-05
7.168025305501584e-05
4.878983859409562e-05
2.663904053634242e-05
1.2826167227055744e-05
0.0
0.0
7.786280251822286e-05
7.78628025185172e-05
0.0
8.316332397321339e-06
7.409324567859287e-06
2.7300070408898234e-05
1.1090098701854555e-05
1.8936998664075196e-05
3.809396702902252e-05
6.920924405709452e-05
3.8093967029537436e-05
1.893699866449249e-05
1.1090098701955003e-05
0.0
8.3163323969956e-06
7.409324567917366e-06
2.7300070409147577e-05
8.695062506332384e-06
2.1259358575238833e-06
2.3419094024405443e-05

