# vtk DataFile Version 2.0
mesh vtk view
ASCII
DATASET UNSTRUCTURED_GRID
POINTS 45 double
0.0 0.0 0.0
199.99982441222733 -0.00020999950265577282 0.000565903464165194
199.99959986309884 99.99976471601754 0.0005757651361877489
0.0 100.0 0.0
0.0 0.0 100.0
200.00040013690116 -0.00023528398247125792 100.00057576513619
200.00017558777267 99.99979000049734 100.00056590346416
0.0 100.0 100.0
50.00004307774616 -3.337329351296793e-05 5.848331020880213e-05
99.99990027884817 1.4638704026385812e-05 -1.1706940456972256e-06
150.00015206598653 6.618031639657408e-05 -0.00020197380890808007
200.00028819027855 50.00021962079448 -0.0005604727285294504
150.00034653543057 100.00009589040428 -0.00021356159496606632
99.99977275250818 99.9999811855283 1.1877003586070671e-05
50.000098168269126 99.99999154333453 4.8765110914510254e-05
0.0 50.00000000025812 0.0
49.99990183186252 -8.456665475707162e-06 100.00004876511092
100.00022724765537 -1.8814471692109508e-05 100.00001187700357
149.99965346465135 9.589040427880158e-05 99.99978643840504
199.99971180972145 50.00021962079448 99.99943952727148
149.99984793409538 100.0000661803164 99.99979802619109
100.00009972131538 100.00001463870404 99.99999882930597
49.99995692238548 99.99996662670648 100.0000584833102
0.0 50.00000000025812 100.0
0.0 0.0 50.0
199.99988759752912 0.00021860043256087175 49.99943691069914
200.0001124024709 100.00021860043256 49.99943691069913
0.0 100.0 50.0
49.99993158787434 50.000024025638126 -6.147006752371894e-05
100.00016217621132 49.99999801184412 6.465387577620163e-06
149.99975078348945 49.99992253168231 0.00019622667141981214
50.00002668249239 2.3975088645782738e-05 49.999938400711294
99.99993674630737 -2.5216865136242993e-06 50.000005097565754
150.00009720132658 -7.653402756123781e-05 50.000198621937436
200.0 49.99978444162577 50.00055267270029
149.99990279875533 99.99992346597244 50.00019862193744
100.00006325385621 99.99999747831349 50.00000509756574
49.99997331763925 100.00002397508865 49.9999384007113
0.0 50.00000000025812 50.0
50.00006841225732 50.00002402563813 99.99993852993248
99.99983782395228 49.999998011844106 100.00000646538757
150.00024921659235 49.999922531682316 100.00019622667142
50.00000000006583 49.99997291862262 50.00006943470832
100.0000000000818 50.000006621452656 49.99998302326912
150.0000000000409 50.00007294073339 49.999812986052525

CELLS 16 144
8 0 8 28 15 24 31 42 38
8 24 31 42 38 4 16 39 23
8 15 28 14 3 38 42 37 27
8 38 42 37 27 23 39 22 7
8 8 9 29 28 31 32 43 42
8 31 32 43 42 16 17 40 39
8 28 29 13 14 42 43 36 37
8 42 43 36 37 39 40 21 22
8 9 10 30 29 32 33 44 43
8 32 33 44 43 17 18 41 40
8 29 30 12 13 43 44 35 36
8 43 44 35 36 40 41 20 21
8 10 1 11 30 33 25 34 44
8 33 25 34 44 18 5 19 41
8 30 11 2 12 44 34 26 35
8 44 34 26 35 41 19 6 20

CELL_TYPES 16
12
12
12
12
12
12
12
12
12
12
12
12
12
12
12
12

POINT_DATA 45
SCALARS MODE1_0.0849_Hz float 1
LOOKUP_TABLE default
0.0
7.334034398570556e-05
8.628393957466434e-05
0.0
0.0
8.628393957440342e-05
7.334034398593693e-05
0.0
9.325882486335333e-06
1.1759571735077363e-05
3.048940005846581e-05
7.786280251833326e-05
4.878983859417421e-05
2.663904053626758e-05
1.2826167226826696e-05
0.0
1.282616722724786e-05
2.6639040536000738e-05
4.878983859337792e-05
7.786280251840651e-05
3.048940005887753e-05
1.1759571735055399e-05
9.325882485969284e-06
0.0
0.0
7.168025305484889e-05
7.168025305526055e-05
0.0
1.1090098701783148e-05
1.8936998664295404e-05
3.809396702936924e-05
8.316332397673603e-06
7.4093245678705265e-06
2.730007040847388e-05
6.920924405709397e-05
2.7300070409569176e-05
7.409324567906248e-06
8.316332396644766e-06
0.0
1.1090098702027394e-05
1.8936998664272724e-05
3.809396702919e-05
8.695062506333245e-06
2.1259358575250717e-06
2.3419094024404243e-05

