# vtk DataFile Version 2.0
mesh vtk view
ASCII
DATASET UNSTRUCTURED_GRID
POINTS 45 double
0.0 0.0 0.0
200.00080027380233 -0.0011515302723745454 -0.0004705679649396586
199.99964882445465 99.99886819307167 -0.0004199990053142023
0.0 100.0 0.0
0.0 0.0 100.0
200.00035117554535 -0.0011318069283351934 99.99958000099468
199.99919972619765 99.99884846972763 99.99952943203506
0.0 100.0 100.0
49.99980366394867 -9.753022184175271e-05 -1.6913330946618324e-05
100.00045449566339 -2.3754007157137282e-05 -3.7628943389266296e-05
149.9993069295761 0.00042712318992226277 0.00019178080855947308
199.99977519505822 50.00112617842542 0.0004372008651220818
150.00030413287516 100.00040394761783 0.00013236063279013386
99.99980055891781 100.00000234138808 2.9277408059228078e-05
50.000086156294856 99.99988303337959 -6.674658703153261e-05
0.0 50.00000000025812 0.0
49.99991384383679 -0.00011696662040188941 99.99993325341296
100.00019944124575 2.341388070302252e-06 100.00002927740807
149.99969586720678 0.0004039476178315079 100.00013236063278
200.00022480494178 50.00112617842542 100.00043720086512
150.0006930705058 100.00042712318992 100.00019178080856
99.99954550450018 99.99997624599284 99.9999623710566
50.000196336182974 99.99990246977816 99.99998308666906
0.0 50.00000000025812 100.0
0.0 0.0 50.0
199.9994236194429 0.0011209454570611007 50.00043924194157
200.00057638055713 100.00112094545706 50.00043924194158
0.0 100.0 50.0
50.00005336549787 50.00012319872693 4.795017729179272e-05
99.99987349340178 49.9999898049094 -5.0433730275658675e-06
150.0001944032408 49.99960275605742 -0.00015306805512237294
50.00013682415935 0.00012294013504589212 50.00004805097723
99.99967564738834 -1.2930775152002056e-05 49.99999602360642
150.0004984328295 -0.0003924533428426433 49.99984506350005
200.0 49.99889465442311 49.99956888360415
149.9995015672524 99.99960754665716 49.99984506350004
100.00032435277524 99.99998706922484 49.999996023606435
49.999863175972294 100.00012294013504 50.00004805097722
0.0 50.00000000025812 50.0
49.999946634633794 50.000123198726925 100.00004795017729
100.00012650676182 49.999989804909404 99.99999495662698
149.999805596841 49.99960275605741 99.99984693194487
50.00000000006583 49.99986113073287 49.999945836946196
100.0000000000818 50.000033953502665 50.00001324282351
150.0000000000409 50.00037402782724 50.000145881602194

CELLS 16 144
8 0 8 28 15 24 31 42 38
8 24 31 42 38 4 16 39 23
8 15 28 14 3 38 42 37 27
8 38 42 37 27 23 39 22 7
8 8 9 29 28 31 32 43 42
8 31 32 43 42 16 17 40 39
8 28 29 13 14 42 43 36 37
8 42 43 36 37 39 40 21 22
8 9 10 30 29 32 33 44 43
8 32 33 44 43 17 18 41 40
8 29 30 12 13 43 44 35 36
8 43 44 35 36 40 41 20 21
8 10 1 11 30 33 25 34 44
8 33 25 34 44 18 5 19 41
8 30 11 2 12 44 34 26 35
8 44 34 26 35 41 19 6 20

CELL_TYPES 16
12
12
12
12
12
12
12
12
12
12
12
12
12
12
12
12

POINT_DATA 45
SCALARS MODE2_0.0849_Hz float 1
LOOKUP_TABLE default
0.0
8.628393957439664e-05
7.334034398594631e-05
0.0
0.0
7.334034398569789e-05
8.628393957467208e-05
0.0
1.2826167227018275e-05
2.6639040535926036e-05
4.878983859345764e-05
7.168025305509545e-05
3.048940005875272e-05
1.1759571735225399e-05
9.325882486284375e-06
0.0
9.325882486019074e-06
1.1759571734907372e-05
3.048940005859283e-05
7.168025305501584e-05
4.878983859409562e-05
2.663904053634242e-05
1.2826167227055744e-05
0.0
0.0
7.786280251822286e-05
7.78628025185172e-05
0.0
8.316332397321339e-06
7.409324567859287e-06
2.7300070408898234e-05
1.1090098701854555e-05
1.8936998664075196e-05
3.809396702902252e-05
6.920924405709452e-05
3.8093967029537436e-05
1.893699866449249e-05
1.1090098701955003e-05
0.0
8.3163323969956e-06
7.409324567917366e-06
2.7300070409147577e-05
8.695062506332384e-06
2.1259358575238833e-06
2.3419094024405443e-05

