# vtk DataFile Version 2.0
mesh vtk view
ASCII
DATASET UNSTRUCTURED_GRID
POINTS 45 double
0.0 0.0 0.0
200.00058027155373 0.00041355847387863855 0.0004135584739349767
199.99941972844618 100.00041355847388 -0.00041355847382988284
0.0 100.0 0.0
0.0 0.0 100.0
199.99941972844627 -0.0004135584738787139 100.00041355847394
200.00058027155382 99.99958644152612 99.99958644152618
0.0 100.0 100.0
50.00023073111996 -0.0008037054538264384 -0.0008037054538103914
99.99997323090432 0.0015137859957292882 0.001513785995721641
149.9996227070033 -0.0013779849051928402 -0.0013779849052130602
200.00000000000003 49.99956305442344 -5.4401559015237957e-14
150.00037729307866 99.9986220150948 0.0013779849051787727
100.00002676925921 100.00151378599573 -0.0015137859957354706
49.9997692690117 99.99919629454618 0.0008037054538369327
0.0 50.00000000025812 0.0
49.99976926843278 0.0008037054538264333 99.9991962945462
100.00002676839043 -0.001513785995729283 100.00151378599573
150.0003772924499 0.0013779849051928725 99.99862201509478
199.99999999999997 50.000436945223946 99.99999999999994
149.99962270763194 100.0013779849052 100.00137798490518
99.99997323177318 99.99848621400427 99.99848621400426
50.00023073169884 100.00080370545382 100.00080370545383
0.0 50.00000000025812 100.0
0.0 0.0 50.0
200.0 3.433400709176548e-17 49.9995630545997
200.0 100.0 50.0004369454002
0.0 100.0 50.0
50.00000000006582 50.00080934588997 -1.3895185785525999e-14
100.00000000008183 49.99846419312246 5.498633399292192e-15
150.00000000004087 50.00140389667977 2.0875340219723635e-14
49.99999999977637 6.64327990517418e-19 50.000809345740436
99.99999999964737 -1.3753613290106428e-18 49.99846419308157
149.9999999997266 -1.45349836360878e-17 50.0014038967475
200.0 49.99999999982369 50.00000000000006
150.0000000003553 100.0 49.99859610325254
100.0000000005162 100.0 50.001535806918454
50.00000000035527 100.0 49.999190654259536
0.0 50.00000000025812 50.0
50.000000000065846 49.99919065440907 99.99999999999999
100.00000000008177 50.00153580695934 100.0
150.00000000004093 49.998596103184816 100.00000000000001
50.00000000006583 50.00000000014952 50.000000000000014
100.0000000000818 50.0000000000409 49.99999999999999
150.0000000000409 49.99999999993229 49.99999999999998

CELLS 16 144
8 0 8 28 15 24 31 42 38
8 24 31 42 38 4 16 39 23
8 15 28 14 3 38 42 37 27
8 38 42 37 27 23 39 22 7
8 8 9 29 28 31 32 43 42
8 31 32 43 42 16 17 40 39
8 28 29 13 14 42 43 36 37
8 42 43 36 37 39 40 21 22
8 9 10 30 29 32 33 44 43
8 32 33 44 43 17 18 41 40
8 29 30 12 13 43 44 35 36
8 43 44 35 36 40 41 20 21
8 10 1 11 30 33 25 34 44
8 33 25 34 44 18 5 19 41
8 30 11 2 12 44 34 26 35
8 44 34 26 35 41 19 6 20

CELL_TYPES 16
12
12
12
12
12
12
12
12
12
12
12
12
12
12
12
12

POINT_DATA 45
SCALARS MODE3_0.0873_Hz float 1
LOOKUP_TABLE default
0.0
1.9223838973376715e-05
1.9223838973484888e-05
0.0
0.0
1.922383897337692e-05
1.9223838973485376e-05
0.0
2.7061857419559757e-05
4.9956294200072724e-05
4.6315547575797645e-05
1.019539267257651e-05
4.631554757564534e-05
4.995629420026266e-05
2.706185741979337e-05
0.0
2.7061857419559788e-05
4.9956294200072684e-05
4.6315547575798086e-05
1.0195392672578193e-05
4.631554757564575e-05
4.995629420026258e-05
2.7061857419793274e-05
0.0
0.0
1.0195392673802076e-05
1.0195392671352456e-05
0.0
1.8884733943879858e-05
3.583549476368366e-05
3.275759077450171e-05
1.888473394353988e-05
3.583549476349411e-05
3.275759077489008e-05
1.2737737959848683e-15
3.275759077411373e-05
3.5835494763872983e-05
1.888473394421969e-05
0.0
1.888473394387971e-05
3.583549476368344e-05
3.275759077450236e-05
3.5354019295110955e-16
1.537530599435624e-16
4.804456569204287e-16

