# vtk DataFile Version 2.0
mesh vtk view
ASCII
DATASET UNSTRUCTURED_GRID
POINTS 45 double
0.0 0.0 0.0
199.99953578275702 -0.00033084677910291075 -0.0003308467791479813
200.00046421724304 99.99966915322089 0.0003308467790639062
0.0 100.0 0.0
0.0 0.0 100.0
200.00046421724298 0.00033084677910297103 99.99966915322085
199.99953578275696 100.00033084677911 100.00033084677906
0.0 100.0 100.0
49.999815414701494 0.0006429643630611506 0.000642964363048313
100.00002141464182 -0.0012110287965834301 -0.0012110287965773124
150.00030183390524 0.0011023879241542718 0.0011023879241704479
199.99999999999997 50.000349556143895 4.352124721219035e-14
149.99969816617661 100.00110238792416 -0.0011023879241430178
99.99997858552179 99.99878897120342 0.001211028796588376
50.00018458543013 100.00064296436305 -0.000642964363069546
0.0 50.00000000025812 0.0
50.00018458485125 -0.0006429643630611465 100.00064296436305
99.99997858465292 0.001211028796583426 99.99878897120342
149.99969816554798 -0.0011023879241542976 100.00110238792416
200.00000000000003 49.99965044350349 100.00000000000004
150.00030183453399 99.99889761207584 99.99889761207585
100.0000214155106 100.00121102879658 100.00121102879659
49.999815415280416 99.99935703563695 99.99935703563693
0.0 50.00000000025812 100.0
0.0 0.0 50.0
200.0 -2.746720567341238e-17 50.000349556320245
200.0 100.0 49.99965044367984
0.0 100.0 50.0
50.00000000006584 49.99935252355716 1.1116148628420795e-14
100.00000000008178 50.00122864557565 -4.398906719433753e-15
150.00000000004093 49.99887688253431 -1.6700272175778902e-14
49.99999999977637 -5.314623924139342e-19 49.99935252340765
99.99999999964737 1.1002890632085139e-18 50.001228645534745
149.9999999997266 1.1627986908870235e-17 49.998876882602005
200.0 49.99999999982369 49.99999999999996
150.0000000003553 100.0 50.00112311739797
100.0000000005162 100.0 49.99877135446524
50.00000000035527 100.0 50.00064747659237
0.0 50.00000000025812 50.0
50.000000000065825 50.00064747674188 100.00000000000001
100.00000000008181 49.99877135450615 100.0
150.00000000004087 50.00112311733027 99.99999999999999
50.00000000006583 50.00000000014952 49.999999999999986
100.0000000000818 50.0000000000409 50.00000000000001
150.0000000000409 49.99999999993229 50.000000000000014

CELLS 16 144
8 0 8 28 15 24 31 42 38
8 24 31 42 38 4 16 39 23
8 15 28 14 3 38 42 37 27
8 38 42 37 27 23 39 22 7
8 8 9 29 28 31 32 43 42
8 31 32 43 42 16 17 40 39
8 28 29 13 14 42 43 36 37
8 42 43 36 37 39 40 21 22
8 9 10 30 29 32 33 44 43
8 32 33 44 43 17 18 41 40
8 29 30 12 13 43 44 35 36
8 43 44 35 36 40 41 20 21
8 10 1 11 30 33 25 34 44
8 33 25 34 44 18 5 19 41
8 30 11 2 12 44 34 26 35
8 44 34 26 35 41 19 6 20

CELL_TYPES 16
12
12
12
12
12
12
12
12
12
12
12
12
12
12
12
12

POINT_DATA 45
SCALARS MODE3_0.0873_Hz float 1
LOOKUP_TABLE default
0.0
1.9223838973376715e-05
1.9223838973484888e-05
0.0
0.0
1.922383897337692e-05
1.9223838973485376e-05
0.0
2.7061857419559757e-05
4.9956294200072724e-05
4.6315547575797645e-05
1.019539267257651e-05
4.631554757564534e-05
4.995629420026266e-05
2.706185741979337e-05
0.0
2.7061857419559788e-05
4.9956294200072684e-05
4.6315547575798086e-05
1.0195392672578193e-05
4.631554757564575e-05
4.995629420026258e-05
2.7061857419793274e-05
0.0
0.0
1.0195392673802076e-05
1.0195392671352456e-05
0.0
1.8884733943879858e-05
3.583549476368366e-05
3.275759077450171e-05
1.888473394353988e-05
3.583549476349411e-05
3.275759077489008e-05
1.2737737959848683e-15
3.275759077411373e-05
3.5835494763872983e-05
1.888473394421969e-05
0.0
1.888473394387971e-05
3.583549476368344e-05
3.275759077450236e-05
3.5354019295110955e-16
1.537530599435624e-16
4.804456569204287e-16

