# vtk DataFile Version 2.0
mesh vtk view
ASCII
DATASET UNSTRUCTURED_GRID
POINTS 45 double
0.0 0.0 0.0
200.0028009583082 -0.004030355953310909 -0.0016469878772888047
199.99877088559126 99.99603867575084 -0.0014699965185997078
0.0 100.0 0.0
0.0 0.0 100.0
200.0012291144087 -0.0039613242491731765 99.99853000348142
199.99719904169177 99.99596964404671 99.9983530121227
0.0 100.0 100.0
49.999312824379416 -0.00034135577644613444 -5.919665831316413e-05
100.00159073570343 -8.313902504998047e-05 -0.00013170130186243201
149.99757425419983 0.0014949311647279194 0.0006712328299581556
199.99921318270378 50.003941624929745 0.0015302030279272859
150.00106446417476 100.00141381666238 0.00046326221476546847
99.99930195492185 100.0000081948583 0.00010247092820729825
50.00030154614382 99.99959061682856 -0.00023361305461036408
0.0 50.00000000025812 0.0
49.99969845398783 -0.00040938317140661284 99.99976638694535
100.0006980452417 8.19485824605788e-06 100.00010247092825
149.9989355359072 0.0014138166624102773 100.00046326221474
200.00078681729622 50.00394162492974 100.00153020302793
150.0024257458821 100.00149493116473 100.00067123282999
99.99840926446012 99.99991686097493 99.9998682986981
50.00068717575224 99.99965864422357 99.99994080334172
0.0 50.00000000025812 100.0
0.0 0.0 50.0
199.9979826680501 0.003923309099713852 50.0015373467955
200.00201733194996 100.0039233090997 50.00153734679551
0.0 100.0 50.0
50.000186779077964 50.00043119517045 0.00016782562052127447
99.99955722670174 49.99996431708063 -1.7651805596480533e-05
150.00068041124064 49.99860964637024 -0.0005357381929283052
50.00047888511679 0.0004302904726606224 50.00016817842029
99.99886476674075 -4.525771303200719e-05 49.99998608262248
150.00174451558672 -0.0013735866999492513 49.99945772225016
200.0 49.99613129092166 49.99849109261452
149.99825548449513 99.99862641330007 49.999457722250135
100.00113523342284 99.99995474228695 49.99998608262251
49.99952111501484 100.00043029047266 50.00016817842026
0.0 50.00000000025812 50.0
49.99981322105369 50.00043119517043 100.00016782562052
100.00044277346187 49.99996431708067 99.9999823481944
149.99931958884116 49.99860964637022 99.99946426180708
50.00000000006583 49.99951395719124 49.999810429311694
100.0000000000818 50.00011883715708 50.000046349882304
150.0000000000409 50.001309097564615 50.000510585607685

CELLS 16 144
8 0 8 28 15 24 31 42 38
8 24 31 42 38 4 16 39 23
8 15 28 14 3 38 42 37 27
8 38 42 37 27 23 39 22 7
8 8 9 29 28 31 32 43 42
8 31 32 43 42 16 17 40 39
8 28 29 13 14 42 43 36 37
8 42 43 36 37 39 40 21 22
8 9 10 30 29 32 33 44 43
8 32 33 44 43 17 18 41 40
8 29 30 12 13 43 44 35 36
8 43 44 35 36 40 41 20 21
8 10 1 11 30 33 25 34 44
8 33 25 34 44 18 5 19 41
8 30 11 2 12 44 34 26 35
8 44 34 26 35 41 19 6 20

CELL_TYPES 16
12
12
12
12
12
12
12
12
12
12
12
12
12
12
12
12

POINT_DATA 45
SCALARS MODE2_0.0849_Hz float 1
LOOKUP_TABLE default
0.0
8.628393957439664e-05
7.334034398594631e-05
0.0
0.0
7.334034398569789e-05
8.628393957467208e-05
0.0
1.2826167227018275e-05
2.6639040535926036e-05
4.878983859345764e-05
7.168025305509545e-05
3.048940005875272e-05
1.1759571735225399e-05
9.325882486284375e-06
0.0
9.325882486019074e-06
1.1759571734907372e-05
3.048940005859283e-05
7.168025305501584e-05
4.878983859409562e-05
2.663904053634242e-05
1.2826167227055744e-05
0.0
0.0
7.786280251822286e-05
7.78628025185172e-05
0.0
8.316332397321339e-06
7.409324567859287e-06
2.7300070408898234e-05
1.1090098701854555e-05
1.8936998664075196e-05
3.809396702902252e-05
6.920924405709452e-05
3.8093967029537436e-05
1.893699866449249e-05
1.1090098701955003e-05
0.0
8.3163323969956e-06
7.409324567917366e-06
2.7300070409147577e-05
8.695062506332384e-06
2.1259358575238833e-06
2.3419094024405443e-05

