# vtk DataFile Version 2.0
mesh vtk view
ASCII
DATASET UNSTRUCTURED_GRID
POINTS 45 double
0.0 0.0 0.0
199.99975299051786 0.0004703838691742467 0.0004703838691710626
200.00024700948214 100.00047038386917 -0.000470383869176482
0.0 100.0 0.0
0.0 0.0 100.0
200.00024700948214 -0.00047038386917424636 100.00047038386917
199.99975299051786 99.99952961613083 99.99952961613083
0.0 100.0 100.0
50.00004694157474 5.048221947693127e-05 5.048221947716777e-05
99.99987297669371 -1.1501907437630306e-05 -1.1501907439004915e-05
150.00020956574872 -0.00015750968610803108 -0.00015750968610579475
200.0 49.99953417285109 9.995569347631202e-16
149.9997904343332 99.9998424903139 0.0001575096861084321
100.00012702346987 99.99998849809256 1.1501907438388742e-05
49.9999530585569 100.00005048221948 -5.048221947769691e-05
0.0 50.00000000025812 0.0
49.999953057978004 -5.04822194769315e-05 100.00005048221948
100.00012702260103 1.1501907437629735e-05 99.99998849809256
149.9997904337045 0.0001575096861080318 99.9998424903139
200.0 50.000465826796294 100.0
150.0002095663774 100.0001575096861 100.0001575096861
99.99987297756252 100.00001150190744 100.00001150190744
50.000046942153645 99.99994951778052 99.99994951778052
0.0 50.00000000025812 100.0
0.0 0.0 50.0
200.0 5.886785615453598e-19 49.9995341730274
200.0 100.0 50.00046582697261
0.0 100.0 50.0
50.00000000006583 49.99994524517421 -1.6089659275159016e-16
100.0000000000818 50.00001752478017 9.830372862948982e-16
150.0000000000409 50.00015210172787 -1.2429977321913182e-15
49.99999999977637 -7.203744438059601e-19 49.99994524502469
99.99999999964737 1.8548141127124006e-19 50.00001752473927
149.9999999997266 -6.705701250997681e-20 50.00015210179558
200.0 49.99999999982369 50.0
150.0000000003553 100.0 49.99984789820442
100.0000000005162 100.0 49.99998247526073
50.00000000035527 100.0 50.00005475497531
0.0 50.00000000025812 50.0
50.00000000006583 50.00005475512483 100.0
100.0000000000818 49.99998247530163 100.0
150.0000000000409 49.999847898136714 100.0
50.00000000006583 50.00000000014952 50.0
100.0000000000818 50.0000000000409 50.0
150.0000000000409 49.99999999993229 50.0

CELLS 16 144
8 0 8 28 15 24 31 42 38
8 24 31 42 38 4 16 39 23
8 15 28 14 3 38 42 37 27
8 38 42 37 27 23 39 22 7
8 8 9 29 28 31 32 43 42
8 31 32 43 42 16 17 40 39
8 28 29 13 14 42 43 36 37
8 42 43 36 37 39 40 21 22
8 9 10 30 29 32 33 44 43
8 32 33 44 43 17 18 41 40
8 29 30 12 13 43 44 35 36
8 43 44 35 36 40 41 20 21
8 10 1 11 30 33 25 34 44
8 33 25 34 44 18 5 19 41
8 30 11 2 12 44 34 26 35
8 44 34 26 35 41 19 6 20

CELL_TYPES 16
12
12
12
12
12
12
12
12
12
12
12
12
12
12
12
12

POINT_DATA 45
SCALARS MODE4_0.0896_Hz float 1
LOOKUP_TABLE default
0.0
8.278695381300815e-05
8.278695381361732e-05
0.0
0.0
8.278695381300802e-05
8.278695381361722e-05
0.0
9.968305727002044e-06
1.4940358344712206e-05
3.5681030917954895e-05
5.434648013690531e-05
3.5681030918401275e-05
1.494035834501519e-05
9.968305727165743e-06
0.0
9.968305727002071e-06
1.4940358344712054e-05
3.568103091795484e-05
5.4346480136905153e-05
3.568103091840134e-05
1.4940358345015181e-05
9.96830572716577e-06
0.0
0.0
5.43464801365817e-05
5.434648013722872e-05
0.0
6.388080453002116e-06
2.0445529150169634e-06
1.7745209484131224e-05
6.388080452974271e-06
2.044552915060411e-06
1.7745209483971253e-05
1.3410427081180337e-16
1.774520948429111e-05
2.0445529149734894e-06
6.388080453029973e-06
0.0
6.388080453002095e-06
2.0445529150168833e-06
1.7745209484131302e-05
2.525951321614468e-17
1.308546731420574e-16
1.6196185387846677e-16

