# vtk DataFile Version 2.0
mesh vtk view
ASCII
DATASET UNSTRUCTURED_GRID
POINTS 45 double
0.0 0.0 0.0
200.00069632586448 0.0004962701686543662 0.0004962701687219721
199.99930367413543 100.00049627016867 -0.0004962701685958594
0.0 100.0 0.0
0.0 0.0 100.0
199.99930367413552 -0.0004962701686544567 100.00049627016872
200.00069632586457 99.99950372983133 99.9995037298314
0.0 100.0 100.0
50.000276877388686 -0.0009644465445917261 -0.0009644465445724697
99.99996787715571 0.0018165431948751459 0.001816543194865969
149.99954724845867 -0.0016535818862314082 -0.001653581886255672
200.00000000000003 49.99947566534339 -6.528187081828555e-14
150.00045275162333 99.99834641811375 0.0016535818862145272
100.0000321230078 100.00181654319488 -0.0018165431948825646
49.999723122742985 99.99903555345541 0.0009644465446043192
0.0 50.00000000025812 0.0
49.999723122164056 0.0009644465445917199 99.99903555345543
100.00003212213903 -0.0018165431948751396 100.00181654319486
150.00045275099455 0.001653581886231447 99.99834641811374
199.99999999999997 50.000524334304 99.99999999999993
149.99954724908727 100.00165358188625 100.00165358188622
99.99996787802459 99.99818345680512 99.99818345680512
50.00027687796756 100.00096444654459 100.0009644465446
0.0 50.00000000025812 100.0
0.0 0.0 50.0
200.0 4.120080851011858e-17 49.99947566551963
200.0 100.0 50.00052433448024
0.0 100.0 50.0
50.00000000006582 50.000971215038064 -1.6674222942631198e-14
100.00000000008183 49.998157031738764 6.5983600791506305e-15
150.00000000004087 50.001684676029264 2.505040826366836e-14
49.99999999977637 7.971935886209015e-19 50.00097121488852
99.99999999964737 -1.6504335948127713e-18 49.99815703169788
149.9999999997266 -1.7441980363305358e-17 50.00168467609699
200.0 49.99999999982369 50.000000000000064
150.0000000003553 100.0 49.99831532390304
100.0000000005162 100.0 50.00184296830214
50.00000000035527 100.0 49.99902878511144
0.0 50.00000000025812 50.0
50.000000000065846 49.999028785260975 99.99999999999999
100.00000000008177 50.001842968343034 100.0
150.00000000004093 49.99831532383532 100.00000000000003
50.00000000006583 50.00000000014952 50.00000000000002
100.0000000000818 50.0000000000409 49.99999999999999
150.0000000000409 49.99999999993229 49.99999999999998

CELLS 16 144
8 0 8 28 15 24 31 42 38
8 24 31 42 38 4 16 39 23
8 15 28 14 3 38 42 37 27
8 38 42 37 27 23 39 22 7
8 8 9 29 28 31 32 43 42
8 31 32 43 42 16 17 40 39
8 28 29 13 14 42 43 36 37
8 42 43 36 37 39 40 21 22
8 9 10 30 29 32 33 44 43
8 32 33 44 43 17 18 41 40
8 29 30 12 13 43 44 35 36
8 43 44 35 36 40 41 20 21
8 10 1 11 30 33 25 34 44
8 33 25 34 44 18 5 19 41
8 30 11 2 12 44 34 26 35
8 44 34 26 35 41 19 6 20

CELL_TYPES 16
12
12
12
12
12
12
12
12
12
12
12
12
12
12
12
12

POINT_DATA 45
SCALARS MODE3_0.0873_Hz float 1
LOOKUP_TABLE default
0.0
1.9223838973376715e-05
1.9223838973484888e-05
0.0
0.0
1.922383897337692e-05
1.9223838973485376e-05
0.0
2.7061857419559757e-05
4.9956294200072724e-05
4.6315547575797645e-05
1.019539267257651e-05
4.631554757564534e-05
4.995629420026266e-05
2.706185741979337e-05
0.0
2.7061857419559788e-05
4.9956294200072684e-05
4.6315547575798086e-05
1.0195392672578193e-05
4.631554757564575e-05
4.995629420026258e-05
2.7061857419793274e-05
0.0
0.0
1.0195392673802076e-05
1.0195392671352456e-05
0.0
1.8884733943879858e-05
3.583549476368366e-05
3.275759077450171e-05
1.888473394353988e-05
3.583549476349411e-05
3.275759077489008e-05
1.2737737959848683e-15
3.275759077411373e-05
3.5835494763872983e-05
1.888473394421969e-05
0.0
1.888473394387971e-05
3.583549476368344e-05
3.275759077450236e-05
3.5354019295110955e-16
1.537530599435624e-16
4.804456569204287e-16

