# vtk DataFile Version 2.0
mesh vtk view
ASCII
DATASET UNSTRUCTURED_GRID
POINTS 45 double
0.0 0.0 0.0
200.00074102844638 -0.0014111516075227405 -0.001411151607513188
199.9992589715536 99.99858884839249 0.0014111516075294465
0.0 100.0 0.0
0.0 0.0 100.0
199.99925897155362 0.0014111516075227394 99.99858884839249
200.0007410284464 100.00141115160751 100.00141115160753
0.0 100.0 100.0
49.999859174381264 -0.00015144665843079384 -0.00015144665843150337
100.00038106850837 3.4505722312890926e-05 3.4505722317014756e-05
149.99937130166032 0.00047252905832409335 0.0004725290583173844
200.0 50.0013974807415 -2.9986708042893615e-15
150.0006286984216 100.00047252905831 -0.00047252905832529643
99.99961893165518 100.00003450572233 -3.450572231516623e-05
50.000140825750385 99.99984855334156 0.00015144665843309078
0.0 50.00000000025812 0.0
50.00014082517148 0.00015144665843079452 99.99984855334156
99.99961893078637 -3.450572231288922e-05 100.00003450572231
150.0006286977929 -0.0004725290583240956 100.00047252905831
200.0 49.998602518905884 100.0
149.999371302289 99.99952747094169 99.99952747094167
100.00038106937721 99.99996549427767 99.99996549427769
49.99985917496016 100.00015144665844 100.00015144665844
0.0 50.00000000025812 100.0
0.0 0.0 50.0
200.0 -1.76603568463608e-18 50.001397480917795
200.0 100.0 49.99860251908218
0.0 100.0 50.0
50.00000000006583 50.000164265075455 4.826897782547707e-16
100.0000000000818 49.99994742582309 -2.9491118588846954e-15
150.0000000000409 49.99954369454556 3.728993196573956e-15
49.99999999977637 2.161123331417881e-18 50.000164264925935
99.99999999964737 -5.564442338137203e-19 49.99994742578218
149.9999999997266 2.011710375299305e-19 49.99954369461327
200.0 49.99999999982369 50.0
150.0000000003553 100.0 50.00045630538674
100.0000000005162 100.0 50.00005257421781
50.00000000035527 100.0 49.999835735074065
0.0 50.00000000025812 50.0
50.00000000006583 49.999835735223584 100.0
100.0000000000818 50.00005257425871 100.0
150.0000000000409 50.00045630531903 100.0
50.00000000006583 50.00000000014952 50.0
100.0000000000818 50.0000000000409 50.0
150.0000000000409 49.99999999993229 49.99999999999999

CELLS 16 144
8 0 8 28 15 24 31 42 38
8 24 31 42 38 4 16 39 23
8 15 28 14 3 38 42 37 27
8 38 42 37 27 23 39 22 7
8 8 9 29 28 31 32 43 42
8 31 32 43 42 16 17 40 39
8 28 29 13 14 42 43 36 37
8 42 43 36 37 39 40 21 22
8 9 10 30 29 32 33 44 43
8 32 33 44 43 17 18 41 40
8 29 30 12 13 43 44 35 36
8 43 44 35 36 40 41 20 21
8 10 1 11 30 33 25 34 44
8 33 25 34 44 18 5 19 41
8 30 11 2 12 44 34 26 35
8 44 34 26 35 41 19 6 20

CELL_TYPES 16
12
12
12
12
12
12
12
12
12
12
12
12
12
12
12
12

POINT_DATA 45
SCALARS MODE4_0.0896_Hz float 1
LOOKUP_TABLE default
0.0
8.278695381300815e-05
8.278695381361732e-05
0.0
0.0
8.278695381300802e-05
8.278695381361722e-05
0.0
9.968305727002044e-06
1.4940358344712206e-05
3.5681030917954895e-05
5.434648013690531e-05
3.5681030918401275e-05
1.494035834501519e-05
9.968305727165743e-06
0.0
9.968305727002071e-06
1.4940358344712054e-05
3.568103091795484e-05
5.4346480136905153e-05
3.568103091840134e-05
1.4940358345015181e-05
9.96830572716577e-06
0.0
0.0
5.43464801365817e-05
5.434648013722872e-05
0.0
6.388080453002116e-06
2.0445529150169634e-06
1.7745209484131224e-05
6.388080452974271e-06
2.044552915060411e-06
1.7745209483971253e-05
1.3410427081180337e-16
1.774520948429111e-05
2.0445529149734894e-06
6.388080453029973e-06
0.0
6.388080453002095e-06
2.0445529150168833e-06
1.7745209484131302e-05
2.525951321614468e-17
1.308546731420574e-16
1.6196185387846677e-16

