# vtk DataFile Version 2.0
mesh vtk view
ASCII
DATASET UNSTRUCTURED_GRID
POINTS 45 double
0.0 0.0 0.0
200.0017290663749 -0.003292687084219728 -0.003292687084197439
199.99827093362504 99.99670731291579 0.0032926870842353746
0.0 100.0 0.0
0.0 0.0 100.0
199.9982709336251 0.0032926870842197252 99.9967073129158
200.00172906637496 100.00329268708421 100.00329268708424
0.0 100.0 100.0
49.99967140718778 -0.0003533755363385189 -0.0003533755363401745
100.00088916032304 8.051335206341216e-05 8.051335207303442e-05
149.99853303757195 0.0011025678027562177 0.0011025678027405635
200.0 50.003260788631906 -6.996898543341843e-15
150.00146696251 100.00110256780275 -0.0011025678027590249
99.9991108398405 100.00008051335207 -8.051335206872122e-05
50.000328592943866 99.99964662446365 0.00035337553634387845
0.0 50.00000000025812 0.0
50.00032859236496 0.00035337553633852054 99.99964662446367
99.9991108389717 -8.051335206340816e-05 100.00008051335207
150.00146696188128 -0.001102567802756223 100.00110256780275
200.0 49.99673921101548 100.0
149.9985330382006 99.99889743219725 99.99889743219724
100.00088916119189 99.99991948664793 99.99991948664793
49.99967140776668 100.00035337553635 100.00035337553635
0.0 50.00000000025812 100.0
0.0 0.0 50.0
200.0 -4.12074993081752e-18 50.0032607888082
200.0 100.0 49.996739211191766
0.0 100.0 50.0
50.00000000006583 50.0003832849767 1.1262761492611315e-15
100.0000000000818 49.999877326866 -6.881261004064289e-15
150.0000000000409 49.998935287363246 8.70098412533923e-15
49.99999999977637 5.042621106641722e-18 50.00038328482718
99.99999999964737 -1.2983698788986806e-18 49.99987732682509
149.9999999997266 4.6939908756983775e-19 49.99893528743096
200.0 49.99999999982369 50.00000000000001
150.0000000003553 100.0 50.001064712569054
100.0000000005162 100.0 50.0001226731749
50.00000000035527 100.0 49.99961671517282
0.0 50.00000000025812 50.0
50.00000000006583 49.99961671532234 100.0
100.0000000000818 50.0001226732158 100.0
150.0000000000409 50.00106471250134 100.00000000000001
50.00000000006583 50.00000000014952 50.0
100.0000000000818 50.0000000000409 50.00000000000001
150.0000000000409 49.99999999993229 49.99999999999999

CELLS 16 144
8 0 8 28 15 24 31 42 38
8 24 31 42 38 4 16 39 23
8 15 28 14 3 38 42 37 27
8 38 42 37 27 23 39 22 7
8 8 9 29 28 31 32 43 42
8 31 32 43 42 16 17 40 39
8 28 29 13 14 42 43 36 37
8 42 43 36 37 39 40 21 22
8 9 10 30 29 32 33 44 43
8 32 33 44 43 17 18 41 40
8 29 30 12 13 43 44 35 36
8 43 44 35 36 40 41 20 21
8 10 1 11 30 33 25 34 44
8 33 25 34 44 18 5 19 41
8 30 11 2 12 44 34 26 35
8 44 34 26 35 41 19 6 20

CELL_TYPES 16
12
12
12
12
12
12
12
12
12
12
12
12
12
12
12
12

POINT_DATA 45
SCALARS MODE4_0.0896_Hz float 1
LOOKUP_TABLE default
0.0
8.278695381300815e-05
8.278695381361732e-05
0.0
0.0
8.278695381300802e-05
8.278695381361722e-05
0.0
9.968305727002044e-06
1.4940358344712206e-05
3.5681030917954895e-05
5.434648013690531e-05
3.5681030918401275e-05
1.494035834501519e-05
9.968305727165743e-06
0.0
9.968305727002071e-06
1.4940358344712054e-05
3.568103091795484e-05
5.4346480136905153e-05
3.568103091840134e-05
1.4940358345015181e-05
9.96830572716577e-06
0.0
0.0
5.43464801365817e-05
5.434648013722872e-05
0.0
6.388080453002116e-06
2.0445529150169634e-06
1.7745209484131224e-05
6.388080452974271e-06
2.044552915060411e-06
1.7745209483971253e-05
1.3410427081180337e-16
1.774520948429111e-05
2.0445529149734894e-06
6.388080453029973e-06
0.0
6.388080453002095e-06
2.0445529150168833e-06
1.7745209484131302e-05
2.525951321614468e-17
1.308546731420574e-16
1.6196185387846677e-16

