# vtk DataFile Version 2.0
mesh vtk view
ASCII
DATASET UNSTRUCTURED_GRID
POINTS 45 double
0.0 0.0 0.0
200.00120041070352 -0.0017272954085618176 -0.0007058519474094875
199.99947323668195 99.9983022896075 -0.0006299985079713031
0.0 100.0 0.0
0.0 0.0 100.0
200.00052676331802 -0.0016977103925027894 99.99937000149204
199.99879958929648 99.99827270459144 99.99929414805258
0.0 100.0 100.0
49.99970549603482 -0.000146295332762629 -2.5369996419927478e-05
100.0006817436714 -3.563101073570591e-05 -5.6443415083899416e-05
149.99896039450084 0.0006406847848833938 0.0002876712128392095
199.99966279258734 50.001689267726285 0.0006558012976831224
150.00045619913507 100.00060592142673 0.00019854094918520071
99.99970083811861 100.00000351208213 4.39161120888421e-05
50.00012923426465 99.99982455006938 -0.00010011988054729888
0.0 50.00000000025812 0.0
49.999870765866994 -0.00017544993060283404 99.99989988011944
100.00029916204494 3.512082105453377e-06 100.0000439161121
149.99954380094687 0.0006059214267472616 100.00019854094917
200.00033720741266 50.001689267726285 100.00065580129768
150.00103960558107 100.00064068478488 100.00028767121285
99.99931825649216 99.99996436898925 99.9999435565849
50.00029450409683 99.99985370466725 99.99997463000359
0.0 50.00000000025812 100.0
0.0 0.0 50.0
199.99913542916434 0.0016814181855916502 50.00065886291236
200.0008645708357 100.00168141818558 50.00065886291236
0.0 100.0 50.0
50.00008004821389 50.00018479801563 7.192526593768905e-05
99.99981024006178 49.99998470734364 -7.5650595413487975e-06
150.00029160484078 49.999404134119985 -0.0002296020826835593
50.00020523635084 0.00018441020256883812 50.00007207646584
99.99951347125882 -1.939616272800308e-05 49.999994035409635
150.00074764938094 -0.0005886800142639647 49.99976759525007
200.0 49.998341981722824 49.999353325406226
149.99925235070094 99.99941131998574 49.999767595250056
100.00048652890476 99.99998060383726 49.99999403540965
49.999794763780805 100.00018441020258 50.00007207646583
0.0 50.00000000025812 50.0
49.999919951917775 50.000184798015624 100.00007192526594
100.00018976010183 49.99998470734366 99.99999243494045
149.99970839524102 49.99940413411998 99.99977039791732
50.00000000006583 49.999791696024545 49.999918755419294
100.0000000000818 50.00005093023355 50.00001986423528
150.0000000000409 50.000561041774716 50.0002188224033

CELLS 16 144
8 0 8 28 15 24 31 42 38
8 24 31 42 38 4 16 39 23
8 15 28 14 3 38 42 37 27
8 38 42 37 27 23 39 22 7
8 8 9 29 28 31 32 43 42
8 31 32 43 42 16 17 40 39
8 28 29 13 14 42 43 36 37
8 42 43 36 37 39 40 21 22
8 9 10 30 29 32 33 44 43
8 32 33 44 43 17 18 41 40
8 29 30 12 13 43 44 35 36
8 43 44 35 36 40 41 20 21
8 10 1 11 30 33 25 34 44
8 33 25 34 44 18 5 19 41
8 30 11 2 12 44 34 26 35
8 44 34 26 35 41 19 6 20

CELL_TYPES 16
12
12
12
12
12
12
12
12
12
12
12
12
12
12
12
12

POINT_DATA 45
SCALARS MODE2_0.0849_Hz float 1
LOOKUP_TABLE default
0.0
8.628393957439664e-05
7.334034398594631e-05
0.0
0.0
7.334034398569789e-05
8.628393957467208e-05
0.0
1.2826167227018275e-05
2.6639040535926036e-05
4.878983859345764e-05
7.168025305509545e-05
3.048940005875272e-05
1.1759571735225399e-05
9.325882486284375e-06
0.0
9.325882486019074e-06
1.1759571734907372e-05
3.048940005859283e-05
7.168025305501584e-05
4.878983859409562e-05
2.663904053634242e-05
1.2826167227055744e-05
0.0
0.0
7.786280251822286e-05
7.78628025185172e-05
0.0
8.316332397321339e-06
7.409324567859287e-06
2.7300070408898234e-05
1.1090098701854555e-05
1.8936998664075196e-05
3.809396702902252e-05
6.920924405709452e-05
3.8093967029537436e-05
1.893699866449249e-05
1.1090098701955003e-05
0.0
8.3163323969956e-06
7.409324567917366e-06
2.7300070409147577e-05
8.695062506332384e-06
2.1259358575238833e-06
2.3419094024405443e-05

