# vtk DataFile Version 2.0
mesh vtk view
ASCII
DATASET UNSTRUCTURED_GRID
POINTS 45 double
0.0 0.0 0.0
199.99947323668198 -0.0006299985079673184 0.0016977103924955819
199.99879958929648 99.9992941480526 0.0017272954085632468
0.0 100.0 0.0
0.0 0.0 100.0
200.00120041070352 -0.0007058519474137738 100.00172729540856
200.00052676331802 99.99937000149203 100.0016977103925
0.0 100.0 100.0
50.00012923368575 -0.00010011988053890379 0.0001754499306264064
99.99970083724979 4.3916112079157435e-05 -3.5120821370916766e-06
150.00045619850638 0.00019854094918972224 -0.0006059214267242402
200.0008645708357 50.00065886273605 -0.0016814181855883514
150.00103960558107 100.00028767121286 -0.000640684784898199
99.99931825649216 99.9999435565849 3.5631010758212014e-05
50.00029450409683 99.99997463000359 0.00014629533274353076
0.0 50.00000000025812 0.0
49.99970549603482 -2.5369996427121485e-05 100.00014629533277
100.0006817436714 -5.644341507632853e-05 100.00003563101072
149.99896039450084 0.00028767121283640473 99.99935931521513
199.9991354291643 50.00065886273605 99.99831858181442
149.99954380157556 100.00019854094917 99.99939407857325
100.00029916291376 100.00004391611212 99.9999964879179
49.999870766445895 99.99989988011943 100.0001754499306
0.0 50.00000000025812 100.0
0.0 0.0 50.0
199.99966279258734 0.0006558012976826152 49.998310732097416
200.00033720741268 100.00065580129768 49.9983107320974
0.0 100.0 50.0
49.999794763491366 50.00007207661534 -0.0001844102025711568
100.00048652847035 49.999994035450555 1.939616273286049e-05
149.99925235038654 49.99976759518235 0.0005886800142594364
50.00008004792443 7.19252659373482e-05 49.999815202133874
99.99981023962735 -7.565059540872899e-06 50.00001529269727
150.0002916045265 -0.00022960208268371342 50.0005958658123
200.0 49.99935332522992 50.00165801810087
149.99970839555542 99.99977039791732 50.00059586581233
100.00018976053623 99.99999243494045 50.00001529269723
49.999919952207215 100.00007192526594 49.99981520213391
0.0 50.00000000025812 50.0
50.0002052366403 50.00007207661537 99.99981558979744
99.99951347169325 49.99999403545052 100.00001939616273
150.00074764969526 49.99976759518237 100.00058868001426
50.00000000006583 49.999918755568814 50.000208304124975
100.0000000000818 50.000019864276176 49.99994906980735
150.0000000000409 50.00021882233559 49.999438958157576

CELLS 16 144
8 0 8 28 15 24 31 42 38
8 24 31 42 38 4 16 39 23
8 15 28 14 3 38 42 37 27
8 38 42 37 27 23 39 22 7
8 8 9 29 28 31 32 43 42
8 31 32 43 42 16 17 40 39
8 28 29 13 14 42 43 36 37
8 42 43 36 37 39 40 21 22
8 9 10 30 29 32 33 44 43
8 32 33 44 43 17 18 41 40
8 29 30 12 13 43 44 35 36
8 43 44 35 36 40 41 20 21
8 10 1 11 30 33 25 34 44
8 33 25 34 44 18 5 19 41
8 30 11 2 12 44 34 26 35
8 44 34 26 35 41 19 6 20

CELL_TYPES 16
12
12
12
12
12
12
12
12
12
12
12
12
12
12
12
12

POINT_DATA 45
SCALARS MODE1_0.0849_Hz float 1
LOOKUP_TABLE default
0.0
7.334034398570556e-05
8.628393957466434e-05
0.0
0.0
8.628393957440342e-05
7.334034398593693e-05
0.0
9.325882486335333e-06
1.1759571735077363e-05
3.048940005846581e-05
7.786280251833326e-05
4.878983859417421e-05
2.663904053626758e-05
1.2826167226826696e-05
0.0
1.282616722724786e-05
2.6639040536000738e-05
4.878983859337792e-05
7.786280251840651e-05
3.048940005887753e-05
1.1759571735055399e-05
9.325882485969284e-06
0.0
0.0
7.168025305484889e-05
7.168025305526055e-05
0.0
1.1090098701783148e-05
1.8936998664295404e-05
3.809396702936924e-05
8.316332397673603e-06
7.4093245678705265e-06
2.730007040847388e-05
6.920924405709397e-05
2.7300070409569176e-05
7.409324567906248e-06
8.316332396644766e-06
0.0
1.1090098702027394e-05
1.8936998664272724e-05
3.809396702919e-05
8.695062506333245e-06
2.1259358575250717e-06
2.3419094024404243e-05

