# vtk DataFile Version 2.0
mesh vtk view
ASCII
DATASET UNSTRUCTURED_GRID
POINTS 45 double
0.0 0.0 0.0
200.0014820568928 -0.002822303215045481 -0.002822303215026376
199.99851794310717 99.99717769678496 0.002822303215058893
0.0 100.0 0.0
0.0 0.0 100.0
199.9985179431072 0.002822303215045479 99.99717769678497
200.00148205689283 100.00282230321504 100.00282230321505
0.0 100.0 100.0
49.99971834898615 -0.0003028933168615877 -0.00030289331686300674
100.00076213736938 6.901144462578185e-05 6.901144463402951e-05
149.99874260359405 0.0009450581166481867 0.0009450581166347688
200.0 50.002794961659305 -5.997341608578723e-15
150.0012573964879 100.00094505811664 -0.0009450581166505929
99.99923786279417 100.00006901144464 -6.901144463033246e-05
50.00028165114549 99.99969710668313 0.00030289331686618156
0.0 50.00000000025812 0.0
50.00028165056659 0.00030289331686158904 99.99969710668314
99.99923786192537 -6.901144462577844e-05 100.00006901144464
150.00125739585917 -0.0009450581166481912 100.00094505811663
200.0 49.99720503798808 100.0
149.9987426042227 99.99905494188336 99.99905494188334
100.00076213823822 99.99993098855536 99.99993098855536
49.99971834956505 100.00030289331687 100.00030289331687
0.0 50.00000000025812 100.0
0.0 0.0 50.0
200.0 -3.53207136927216e-18 50.0027949618356
200.0 100.0 49.997205038164374
0.0 100.0 50.0
50.00000000006583 50.00032853000139 9.653795565095414e-16
100.0000000000818 49.99989485160527 -5.898223717769391e-15
150.0000000000409 49.999087389158824 7.457986393147912e-15
49.99999999977637 4.322246662835762e-18 50.00032852985187
99.99999999964737 -1.1128884676274406e-18 49.99989485156437
149.9999999997266 4.02342075059861e-19 49.99908738922654
200.0 49.99999999982369 50.00000000000001
150.0000000003553 100.0 50.000912610773476
100.0000000005162 100.0 50.00010514843563
50.00000000035527 100.0 49.99967147014813
0.0 50.00000000025812 50.0
50.00000000006583 49.99967147029765 100.0
100.0000000000818 50.00010514847653 100.0
150.0000000000409 50.00091261070576 100.00000000000001
50.00000000006583 50.00000000014952 50.0
100.0000000000818 50.0000000000409 50.00000000000001
150.0000000000409 49.99999999993229 49.99999999999999

CELLS 16 144
8 0 8 28 15 24 31 42 38
8 24 31 42 38 4 16 39 23
8 15 28 14 3 38 42 37 27
8 38 42 37 27 23 39 22 7
8 8 9 29 28 31 32 43 42
8 31 32 43 42 16 17 40 39
8 28 29 13 14 42 43 36 37
8 42 43 36 37 39 40 21 22
8 9 10 30 29 32 33 44 43
8 32 33 44 43 17 18 41 40
8 29 30 12 13 43 44 35 36
8 43 44 35 36 40 41 20 21
8 10 1 11 30 33 25 34 44
8 33 25 34 44 18 5 19 41
8 30 11 2 12 44 34 26 35
8 44 34 26 35 41 19 6 20

CELL_TYPES 16
12
12
12
12
12
12
12
12
12
12
12
12
12
12
12
12

POINT_DATA 45
SCALARS MODE4_0.0896_Hz float 1
LOOKUP_TABLE default
0.0
8.278695381300815e-05
8.278695381361732e-05
0.0
0.0
8.278695381300802e-05
8.278695381361722e-05
0.0
9.968305727002044e-06
1.4940358344712206e-05
3.5681030917954895e-05
5.434648013690531e-05
3.5681030918401275e-05
1.494035834501519e-05
9.968305727165743e-06
0.0
9.968305727002071e-06
1.4940358344712054e-05
3.568103091795484e-05
5.4346480136905153e-05
3.568103091840134e-05
1.4940358345015181e-05
9.96830572716577e-06
0.0
0.0
5.43464801365817e-05
5.434648013722872e-05
0.0
6.388080453002116e-06
2.0445529150169634e-06
1.7745209484131224e-05
6.388080452974271e-06
2.044552915060411e-06
1.7745209483971253e-05
1.3410427081180337e-16
1.774520948429111e-05
2.0445529149734894e-06
6.388080453029973e-06
0.0
6.388080453002095e-06
2.0445529150168833e-06
1.7745209484131302e-05
2.525951321614468e-17
1.308546731420574e-16
1.6196185387846677e-16

