# vtk DataFile Version 2.0
mesh vtk view
ASCII
DATASET UNSTRUCTURED_GRID
POINTS 2 double
0.0 0.0 0.0
0.0 0.9998714285714285 0.0

CELLS 1 3
2 0 1

CELL_TYPES 1
3

POINT_DATA 2
SCALARS DISPL_step0 float 1
LOOKUP_TABLE default
0.0
0.01

