# vtk DataFile Version 2.0
mesh vtk view
ASCII
DATASET UNSTRUCTURED_GRID
POINTS 4 double
0.0 0.0 0.0
0.8999999999999999 0.0 0.0
0.283333333332501 0.0 0.0
0.7532692070442313 0.0 0.0

CELLS 3 9
2 0 2
2 2 3
2 3 1

CELL_TYPES 3
3
3
3

POINT_DATA 4
SCALARS MODE3_2.1741_Hz float 1
LOOKUP_TABLE default
0.0
0.1825741858350554
0.09128709291752765
0.158113883008419

