# vtk DataFile Version 2.0
mesh vtk view
ASCII
DATASET UNSTRUCTURED_GRID
POINTS 4 double
0.0 0.0 0.0
0.9857142857142858 0.0 0.0
0.32619047618964386 0.0 0.0
0.6790384581484222 0.0 0.0

CELLS 3 9
2 0 2
2 2 3
2 3 1

CELL_TYPES 3
3
3
3

POINT_DATA 4
SCALARS MODE3_2.1741_Hz float 1
LOOKUP_TABLE default
0.0
0.1825741858350554
0.09128709291752765
0.158113883008419

