# vtk DataFile Version 2.0
mesh vtk view
ASCII
DATASET UNSTRUCTURED_GRID
POINTS 101 double
0.0 0.0 0.0
1.0 2.5471262241865644 0.0
0.009999999999981052 0.024253939885791193 0.0
0.01999999999996226 0.09221954210644803 0.0
0.02999999999994291 0.19671426544044285 0.0
0.03999999999992165 0.33059483651998406 0.0
0.04999999999989939 0.4867985134547974 0.0
0.05999999999987805 0.6583960926442047 0.0
0.06999999999986013 0.8386538411781387 0.0
0.07999999999984476 1.0211015911619983 0.0
0.08999999999982944 1.1996043107898258 0.0
0.09999999999981413 1.3684345724981453 0.0
0.1099999999997988 1.5223434724604201 0.0
0.1199999999997825 1.6566277183896616 0.0
0.1299999999997603 1.7671907935031896 0.0
0.1399999999997321 1.8505963220489121 0.0
0.1499999999997028 1.9041120036394796 0.0
0.1599999999996737 1.9257427467000756 0.0
0.1699999999996445 1.9142519118513142 0.0
0.1799999999996153 1.8691698697253094 0.0
0.1899999999995861 1.7907893798234162 0.0
0.1999999999995569 1.6801476025208475 0.0
0.2099999999995277 1.5389948599605343 0.0
0.2199999999994985 1.3697505580364087 0.0
0.2299999999994693 1.1754469656773696 0.0
0.2399999999994402 0.9596618140939172 0.0
0.2499999999994109 0.7264409227014372 0.0
0.2599999999993817 0.4802122756516922 0.0
0.2699999999993525 0.2256931593097122 0.0
0.2799999999993234 -0.032207876804126415 0.0
0.2899999999992942 -0.2884923578685838 0.0
0.299999999999265 -0.5381745664961526 0.0
0.3099999999992358 -0.7763835806039885 0.0
0.3199999999992066 -0.9984626817273622 0.0
0.3299999999991775 -1.2000641947632928 0.0
0.3399999999991483 -1.3772379053861792 0.0
0.349999999999119 -1.5265113243931558 0.0
0.3599999999990898 -1.6449602264602627 0.0
0.3699999999990606 -1.7302680809584134 0.0
0.3799999999990315 -1.780773210737663 0.0
0.3899999999990023 -1.7955027567118567 0.0
0.3999999999989731 -1.774192786765312 0.0
0.4099999999989439 -1.7172941617241038 0.0
0.4199999999989147 -1.6259640533573947 0.0
0.4299999999988856 -1.5020432939350827 0.0
0.4399999999988564 -1.3480200180529547 0.0
0.4499999999988272 -1.1669803296033212 0.0
0.4599999999987979 -0.9625469844631097 0.0
0.4699999999987687 -0.7388073175226672 0.0
0.4799999999987396 -0.5002318563257802 0.0
0.4899999999987104 -0.2515852485403292 0.0
0.4999999999986921 0.002168716972734305 0.0
0.5099999999987076 0.255966098632328 0.0
0.5199999999987339 0.5047438240147732 0.0
0.5299999999987604 0.7435407291338629 0.0
0.5399999999987867 0.9675965994618442 0.0
0.549999999998813 1.1724472376082782 0.0
0.5599999999988394 1.3540136625752008 0.0
0.5699999999988659 1.508683663355652 0.0
0.5799999999988923 1.6333840830046658 0.0
0.5899999999989186 1.7256423951403752 0.0
0.5999999999989449 1.7836363494384302 0.0
0.6099999999989714 1.8062307018040031 0.0
0.6199999999989977 1.7930003037896851 0.0
0.6299999999990241 1.7442390993370855 0.0
0.6399999999990504 1.6609548596206356 0.0
0.6499999999990768 1.5448497730553055 0.0
0.6599999999991032 1.3982872917186082 0.0
0.6699999999991295 1.2242459118980533 0.0
0.679999999999156 1.0262608297398612 0.0
0.6899999999991824 0.8083546578406227 0.0
0.6999999999992087 0.5749586102610714 0.0
0.7099999999992351 0.3308257574989238 0.0
0.7199999999992615 0.08093811564246364 0.0
0.7299999999992879 -0.16959053792336048 0.0
0.7399999999993142 -0.4156141387209334 0.0
0.7499999999993405 -0.6520540632789489 0.0
0.759999999999367 -0.8739970622317061 0.0
0.7699999999993933 -1.0767893763423577 0.0
0.7799999999994197 -1.2561250791766891 0.0
0.789999999999446 -1.4081267934202977 0.0
0.7999999999994724 -1.5294170662616065 0.0
0.8099999999994988 -1.617178859819568 0.0
0.8199999999995252 -1.6692038115605412 0.0
0.8299999999995517 -1.6839271426845124 0.0
0.839999999999578 -1.6604483347005627 0.0
0.8499999999996044 -1.5985369505361717 0.0
0.8599999999996307 -1.4986232408659663 0.0
0.869999999999657 -1.361773442989135 0.0
0.8799999999996835 -1.1896499424702949 0.0
0.8899999999997098 -0.9844567207868633 0.0
0.8999999999997362 -0.7488707493714382 0.0
0.9099999999997626 -0.48596020583639166 0.0
0.9199999999997889 -0.199090576219951 0.0
0.9299999999998153 0.1081801374500748 0.0
0.9399999999998417 0.4322157669478175 0.0
0.9499999999998682 0.7694244714073173 0.0
0.9599999999998945 1.1163879303775723 0.0
0.9699999999999208 1.469995810257332 0.0
0.9799999999999472 1.8275841476540937 0.0
0.9899999999999736 2.187076416494151 0.0

CELLS 100 300
2 0 2
2 2 3
2 3 4
2 4 5
2 5 6
2 6 7
2 7 8
2 8 9
2 9 10
2 10 11
2 11 12
2 12 13
2 13 14
2 14 15
2 15 16
2 16 17
2 17 18
2 18 19
2 19 20
2 20 21
2 21 22
2 22 23
2 23 24
2 24 25
2 25 26
2 26 27
2 27 28
2 28 29
2 29 30
2 30 31
2 31 32
2 32 33
2 33 34
2 34 35
2 35 36
2 36 37
2 37 38
2 38 39
2 39 40
2 40 41
2 41 42
2 42 43
2 43 44
2 44 45
2 45 46
2 46 47
2 47 48
2 48 49
2 49 50
2 50 51
2 51 52
2 52 53
2 53 54
2 54 55
2 55 56
2 56 57
2 57 58
2 58 59
2 59 60
2 60 61
2 61 62
2 62 63
2 63 64
2 64 65
2 65 66
2 66 67
2 67 68
2 68 69
2 69 70
2 70 71
2 71 72
2 72 73
2 73 74
2 74 75
2 75 76
2 76 77
2 77 78
2 78 79
2 79 80
2 80 81
2 81 82
2 82 83
2 83 84
2 84 85
2 85 86
2 86 87
2 87 88
2 88 89
2 89 90
2 90 91
2 91 92
2 92 93
2 93 94
2 94 95
2 95 96
2 96 97
2 97 98
2 98 99
2 99 100
2 100 1

CELL_TYPES 100
3
3
3
3
3
3
3
3
3
3
3
3
3
3
3
3
3
3
3
3
3
3
3
3
3
3
3
3
3
3
3
3
3
3
3
3
3
3
3
3
3
3
3
3
3
3
3
3
3
3
3
3
3
3
3
3
3
3
3
3
3
3
3
3
3
3
3
3
3
3
3
3
3
3
3
3
3
3
3
3
3
3
3
3
3
3
3
3
3
3
3
3
3
3
3
3
3
3
3
3

POINT_DATA 101
SCALARS MODE5_4.0139_Hz float 1
LOOKUP_TABLE default
0.0
0.25471262241865644
0.0024253939885791193
0.009221954210644803
0.019671426544044284
0.03305948365199841
0.04867985134547974
0.06583960926442048
0.08386538411781387
0.10211015911619983
0.11996043107898258
0.13684345724981453
0.152234347246042
0.16566277183896616
0.17671907935031897
0.18505963220489122
0.19041120036394796
0.19257427467000757
0.1914251911851314
0.18691698697253095
0.17907893798234162
0.16801476025208475
0.15389948599605344
0.13697505580364086
0.11754469656773697
0.09596618140939171
0.07264409227014372
0.048021227565169224
0.02256931593097122
-0.0032207876804126413
-0.028849235786858378
-0.053817456649615264
-0.07763835806039884
-0.09984626817273622
-0.12000641947632928
-0.1377237905386179
-0.15265113243931558
-0.16449602264602628
-0.17302680809584134
-0.1780773210737663
-0.17955027567118567
-0.1774192786765312
-0.1717294161724104
-0.16259640533573946
-0.15020432939350828
-0.13480200180529547
-0.11669803296033211
-0.09625469844631097
-0.07388073175226671
-0.050023185632578016
-0.02515852485403292
0.00021687169727343047
0.025596609863232797
0.05047438240147733
0.07435407291338629
0.09675965994618442
0.11724472376082781
0.13540136625752008
0.1508683663355652
0.1633384083004666
0.17256423951403752
0.17836363494384302
0.1806230701804003
0.17930003037896852
0.17442390993370854
0.16609548596206355
0.15448497730553054
0.13982872917186082
0.12242459118980534
0.10262608297398612
0.08083546578406227
0.057495861026107146
0.03308257574989238
0.008093811564246364
-0.01695905379233605
-0.04156141387209334
-0.06520540632789489
-0.08739970622317061
-0.10767893763423578
-0.12561250791766893
-0.14081267934202976
-0.15294170662616063
-0.1617178859819568
-0.16692038115605412
-0.16839271426845123
-0.16604483347005627
-0.15985369505361718
-0.14986232408659664
-0.1361773442989135
-0.1189649942470295
-0.09844567207868633
-0.07488707493714382
-0.04859602058363917
-0.0199090576219951
0.01081801374500748
0.04322157669478175
0.07694244714073173
0.11163879303775723
0.1469995810257332
0.18275841476540938
0.2187076416494151

