# vtk DataFile Version 2.0
mesh vtk view
ASCII
DATASET UNSTRUCTURED_GRID
POINTS 101 double
0.0 0.0 0.0
1.0 0.6549749519390744 0.0
0.009999999999981052 0.0001146167705731517 0.0
0.01999999999996226 0.000456353779887784 0.0
0.02999999999994291 0.0010220410920039485 0.0
0.03999999999992165 0.0018085088320118228 0.0
0.04999999999989939 0.002812587255899039 0.0
0.05999999999987805 0.00403110684771172 0.0
0.06999999999986013 0.005460898443616743 0.0
0.07999999999984476 0.007098793382473894 0.0
0.08999999999982944 0.008941623682526496 0.0
0.09999999999981413 0.010986222243818565 0.0
0.1099999999997988 0.013229423075947787 0.0
0.1199999999997825 0.015668061550761253 0.0
0.1299999999997603 0.01829897467960004 0.0
0.1399999999997321 0.02111900141471015 0.0
0.1499999999997028 0.02412498297441946 0.0
0.1599999999996737 0.02731376319169301 0.0
0.1699999999996445 0.030682188885681253 0.0
0.1799999999996153 0.034227110255867485 0.0
0.1899999999995861 0.037945381298416236 0.0
0.1999999999995569 0.04183386024433952 0.0
0.2099999999995277 0.045889410019105736 0.0
0.2199999999994985 0.05010889872327802 0.0
0.2299999999994693 0.054489200133807654 0.0
0.2399999999994402 0.05902719422561304 0.0
0.2499999999994109 0.06371976771301023 0.0
0.2599999999993817 0.0685638146106477 0.0
0.2699999999993525 0.07355623681357405 0.0
0.2799999999993234 0.07869394469601432 0.0
0.2899999999992942 0.08397385772847663 0.0
0.299999999999265 0.08939290511281822 0.0
0.3099999999992358 0.09494802643490409 0.0
0.3199999999992066 0.10063617233448116 0.0
0.3299999999991775 0.10645430519187299 0.0
0.3399999999991483 0.11239939983108165 0.0
0.349999999999119 0.1184684442389949 0.0
0.3599999999990898 0.12465844030028246 0.0
0.3699999999990606 0.1309664045475957 0.0
0.3799999999990315 0.13738936892675768 0.0
0.3899999999990023 0.14392438157649548 0.0
0.3999999999989731 0.15056850762239532 0.0
0.4099999999989439 0.15731882998475838 0.0
0.4199999999989147 0.1641724501999298 0.0
0.4299999999988856 0.17112648925470036 0.0
0.4399999999988564 0.17817808843351912 0.0
0.4499999999988272 0.1853244101781572 0.0
0.4599999999987979 0.1925626389593436 0.0
0.4699999999987687 0.19988998216014314 0.0
0.4799999999987396 0.20730367097074998 0.0
0.4899999999987104 0.21480096129429196 0.0
0.4999999999986921 0.22237913466324974 0.0
0.5099999999987076 0.23003549916624752 0.0
0.5199999999987339 0.23776739038483669 0.0
0.5299999999987604 0.24557217233996062 0.0
0.5399999999987867 0.25344723844771094 0.0
0.549999999998813 0.26139001248413285 0.0
0.5599999999988394 0.269397949558758 0.0
0.5699999999988659 0.2774685370964712 0.0
0.5799999999988923 0.28559929582739824 0.0
0.5899999999989186 0.29378778078454976 0.0
0.5999999999989449 0.30203158230893756 0.0
0.6099999999989714 0.3103283270618528 0.0
0.6199999999989977 0.3186756790439056 0.0
0.6299999999990241 0.3270713406206453 0.0
0.6399999999990504 0.3355130535544735 0.0
0.6499999999990768 0.3439986000424869 0.0
0.6599999999991032 0.35252580376003495 0.0
0.6699999999991295 0.36109253090969395 0.0
0.679999999999156 0.36969669127538873 0.0
0.6899999999991824 0.3783362392813665 0.0
0.6999999999992087 0.38700917505586424 0.0
0.7099999999992351 0.3957135454991192 0.0
0.7199999999992615 0.40444744535548066 0.0
0.7299999999992879 0.41320901828942397 0.0
0.7399999999993142 0.4219964579652945 0.0
0.7499999999993405 0.43080800913038586 0.0
0.759999999999367 0.43964196870116473 0.0
0.7699999999993933 0.44849668685262667 0.0
0.7799999999994197 0.45737056811033994 0.0
0.789999999999446 0.46626207244504864 0.0
0.7999999999994724 0.47516971636966493 0.0
0.8099999999994988 0.48409207403843874 0.0
0.8199999999995252 0.49302777834814066 0.0
0.8299999999995517 0.5019755220410407 0.0
0.839999999999578 0.510934058809542 0.0
0.8499999999996044 0.5199022044023246 0.0
0.8599999999996307 0.5288788377317999 0.0
0.869999999999657 0.5378629019827322 0.0
0.8799999999996835 0.5468534057219673 0.0
0.8899999999997098 0.5558494240090772 0.0
0.8999999999997362 0.5648500995077592 0.0
0.9099999999997626 0.573854643597913 0.0
0.9199999999997889 0.5828623374883214 0.0
0.9299999999998153 0.5918725333298357 0.0
0.9399999999998417 0.6008846553289381 0.0
0.9499999999998682 0.6098982008615843 0.0
0.9599999999998945 0.6189127415872985 0.0
0.9699999999999208 0.6279279245634558 0.0
0.9799999999999472 0.6369434733596835 0.0
0.9899999999999736 0.6459591891723441 0.0

CELLS 100 300
2 0 2
2 2 3
2 3 4
2 4 5
2 5 6
2 6 7
2 7 8
2 8 9
2 9 10
2 10 11
2 11 12
2 12 13
2 13 14
2 14 15
2 15 16
2 16 17
2 17 18
2 18 19
2 19 20
2 20 21
2 21 22
2 22 23
2 23 24
2 24 25
2 25 26
2 26 27
2 27 28
2 28 29
2 29 30
2 30 31
2 31 32
2 32 33
2 33 34
2 34 35
2 35 36
2 36 37
2 37 38
2 38 39
2 39 40
2 40 41
2 41 42
2 42 43
2 43 44
2 44 45
2 45 46
2 46 47
2 47 48
2 48 49
2 49 50
2 50 51
2 51 52
2 52 53
2 53 54
2 54 55
2 55 56
2 56 57
2 57 58
2 58 59
2 59 60
2 60 61
2 61 62
2 62 63
2 63 64
2 64 65
2 65 66
2 66 67
2 67 68
2 68 69
2 69 70
2 70 71
2 71 72
2 72 73
2 73 74
2 74 75
2 75 76
2 76 77
2 77 78
2 78 79
2 79 80
2 80 81
2 81 82
2 82 83
2 83 84
2 84 85
2 85 86
2 86 87
2 87 88
2 88 89
2 89 90
2 90 91
2 91 92
2 92 93
2 93 94
2 94 95
2 95 96
2 96 97
2 97 98
2 98 99
2 99 100
2 100 1

CELL_TYPES 100
3
3
3
3
3
3
3
3
3
3
3
3
3
3
3
3
3
3
3
3
3
3
3
3
3
3
3
3
3
3
3
3
3
3
3
3
3
3
3
3
3
3
3
3
3
3
3
3
3
3
3
3
3
3
3
3
3
3
3
3
3
3
3
3
3
3
3
3
3
3
3
3
3
3
3
3
3
3
3
3
3
3
3
3
3
3
3
3
3
3
3
3
3
3
3
3
3
3
3
3

POINT_DATA 101
SCALARS MODE1_0.0706_Hz float 1
LOOKUP_TABLE default
0.0
0.25471248130964
4.457318855622566e-05
0.00017747091440080488
0.00039746042466820217
0.00070330899022682
0.0010937839328496262
0.001567652662999002
0.0021236827280731777
0.0027606418709620697
0.003477298098760304
0.004272419761484997
0.005144775640646361
0.006093135047518265
0.0071162679309555695
0.008212944994609502
0.009381937823385346
0.010622019018991725
0.011931962344431597
0.013310542877281797
0.014756537171606313
0.016268723428354257
0.017845881674096675
0.01948679394794145
0.021190244496480753
0.022955019976627293
0.024779909666170646
0.026663705681918545
0.028605203205278797
0.030603200715116675
0.03265650022774091
0.03476390754387375
0.0369242325024627
0.03913628924118712
0.04139889646350616
0.0437108777120873
0.046071061648498016
0.04847828233899873
0.050931379546287216
0.053429199027072424
0.05597059283530379
0.058554419630931505
0.061179544994072695
0.06384484174441714
0.0665491902657168
0.06929147883525744
0.07207060395817225
0.0748854707064114
0.07773499306227788
0.08061809426640276
0.08353370717000243
0.08648077459126378
0.08945824967576292
0.09246509626076982
0.095500289243318
0.09856281495188758
0.10165167152160721
0.10476586927285034
0.10790443109307211
0.11106639282176597
0.11425080363843601
0.11745672645347571
0.12068323830183164
0.1239294307392966
0.12719441024136205
0.13047729860451746
0.133777233349856
0.13709336812890247
0.14042487313154764
0.1437709354959845
0.1471307597205314
0.15050356807728052
0.15388860102743523
0.15728511763824246
0.16069239600144264
0.16410973365317008
0.16753644799515005
0.1709718767171196
0.1744153782204659
0.17786633204290997
0.18132413928418556
0.18478822303264747
0.18825802879272616
0.1917330249131658
0.19521270301596025
0.198696578425933
0.202184190600904
0.20567510356236662
0.20916890632661808
0.2126652133363206
0.2161636648924189
0.21966392758635078
0.2231656947325217
0.22666868680101385
0.23017265185049166
0.23367736596125369
0.23718263366839387
0.24068828839506048
0.24419419288578836
0.2477002396398769
0.25120635134480046

